 sdf
GAUSSIAN              1 MOL ORBITALS      8 PRIMITIVES        1 NUCLEI
  H    1    (CENTRE  1)   0.00000000  0.00000000  0.00000000  CHARGE =  1.0
CENTRE ASSIGNMENTS    1  1  1  1  1  1  1  1
TYPE ASSIGNMENTS      1  1  1  1  1  2  3  4
EXPONENTS  0.3386500D+02 0.5094790D+01 0.1158790D+01 0.3258400D+00 0.1027410D+00
EXPONENTS  0.7500000D+00 0.7500000D+00 0.7500000D+00
MO    1     MO 0.0        OCC NO =    1.0000000  ORB. ENERGY =   -0.321701
  0.63668105D-01  0.11484818D+00  0.16931649D+00  0.14355718D+00  0.53628522D-01
  0.00000000D+00  0.00000000D+00  0.00000000D+00
END DATA
 TOTAL ENERGY =       -0.502155930090 THE VIRIAL(-V/T)=   2.00765627
