Title Card Required                                                     
FOpt      RB3LYP                                                      6-311+G(2df,p)      
Number of atoms                            I                5
Info1-9                                    I   N=           9
          21          14           0           0           0         110
           2          18        -502
Full Title                                 C   N=           2
Title Card Required     
Route                                      C   N=           3
# b3lyp/6-311+G(2df,p) opt          
Charge                                     I                0
Multiplicity                               I                1
Number of electrons                        I               18
Number of alpha electrons                  I                9
Number of beta electrons                   I                9
Number of basis functions                  I               66
Number of independent functions            I               66
Number of point charges in /Mol/           I                0
Number of translation vectors              I                0
Atomic numbers                             I   N=           5
          14           1           1           1           1
Nuclear charges                            R   N=           5
  1.40000000E+01  1.00000000E+00  1.00000000E+00  1.00000000E+00  1.00000000E+00
Current cartesian coordinates              R   N=          15
  0.00000000E+00  0.00000000E+00  0.00000000E+00  1.61584219E+00  1.61584219E+00
  1.61584219E+00 -1.61584219E+00 -1.61584219E+00  1.61584219E+00 -1.61584219E+00
  1.61584219E+00 -1.61584219E+00  1.61584219E+00 -1.61584219E+00 -1.61584219E+00
Number of symbols in /Mol/                 I                0
Force Field                                I                0
Atom Types                                 C   N=           5
                                                            
Int Atom Types                             I   N=           5
           0           0           0           0           0
MM charges                                 R   N=           5
  0.00000000E+00  0.00000000E+00  0.00000000E+00  0.00000000E+00  0.00000000E+00
Integer atomic weights                     I   N=           5
          28           1           1           1           1
Real atomic weights                        R   N=           5
  2.79769284E+01  1.00782504E+00  1.00782504E+00  1.00782504E+00  1.00782504E+00
Atom fragment info                         I   N=           5
           0           0           0           0           0
Atom residue num                           I   N=           5
           0           0           0           0           0
Nuclear spins                              I   N=           5
           0           1           1           1           1
Nuclear ZEff                               R   N=           5
 -1.22500000E+01 -1.00000000E+00 -1.00000000E+00 -1.00000000E+00 -1.00000000E+00
Nuclear ZNuc                               R   N=           5
  1.40000000E+01  1.00000000E+00  1.00000000E+00  1.00000000E+00  1.00000000E+00
Nuclear QMom                               R   N=           5
  0.00000000E+00  0.00000000E+00  0.00000000E+00  0.00000000E+00  0.00000000E+00
Nuclear GFac                               R   N=           5
  0.00000000E+00  2.79284600E+00  2.79284600E+00  2.79284600E+00  2.79284600E+00
MicOpt                                     I   N=           5
          -1          -1          -1          -1          -1
Number of residues                         I                0
Number of secondary structures             I                0
Redundant internal dimensions              I   N=           4
          14           4           6           4
Redundant internal coordinate indices      I   N=          56
           1           2           0           0           1           3
           0           0           1           4           0           0
           1           5           0           0           2           1
           3           0           2           1           4           0
           2           1           5           0           3           1
           4           0           3           1           5           0
           4           1           5           0           2           1
           4           3           2           1           5           3
           2           1           5           4           3           1
           5           4
Redundant internal coordinates             R   N=          14
  2.79872077E+00  2.79872077E+00  2.79872077E+00  2.79872077E+00  1.91063324E+00
  1.91063324E+00  1.91063324E+00  1.91063324E+00  1.91063324E+00  1.91063324E+00
 -2.09439510E+00  2.09439510E+00 -2.09439510E+00  2.09439510E+00
ZRed-IntVec                                I   N=          14
           0           0           0           0           0           0
           0           0           0           0           0           0
           0           0
ZRed-FPVec                                 R   N=          14
  0.00000000E+00  0.00000000E+00  0.00000000E+00  0.00000000E+00  0.00000000E+00
  0.00000000E+00  0.00000000E+00  0.00000000E+00  0.00000000E+00  0.00000000E+00
  0.00000000E+00  0.00000000E+00  0.00000000E+00  0.00000000E+00
ZRed-Constraint1                           R   N=          14
  2.77789735E+00  2.77789734E+00  2.77789735E+00  2.77789735E+00  1.91063324E+00
  1.91063324E+00  1.91063324E+00  1.91063324E+00  1.91063324E+00  1.91063324E+00
 -2.09439510E+00  2.09439510E+00 -2.09439510E+00  2.09439510E+00
ZRed-Constraint2                           R   N=          14
  0.00000000E+00  0.00000000E+00  0.00000000E+00  0.00000000E+00  0.00000000E+00
  0.00000000E+00  0.00000000E+00  0.00000000E+00  0.00000000E+00  0.00000000E+00
  0.00000000E+00  0.00000000E+00  0.00000000E+00  0.00000000E+00
SymInf integers                            I   N=          26
           4           4           1           1           1           1
          -1          -1          -1           1          -1          -1
          -1           1           0           0           0           0
           0           0           0           0           0           0
           0           0
RotTr to input orientation                 R   N=          12
  7.07106781E-01  4.08248290E-01  5.77350269E-01 -7.07106781E-01  4.08248291E-01
  5.77350269E-01 -2.21967165E-10 -8.16496581E-01  5.77350270E-01  2.46716228E-17
 -8.63506797E-17 -8.01827740E-17
Number of contracted shells                I               31
Number of primitive shells                 I               50
Pure/Cartesian d shells                    I                0
Pure/Cartesian f shells                    I                0
Highest angular momentum                   I                3
Largest degree of contraction              I                6
Shell types                                I   N=          31
           0           0           0           0           0           0
          -1           1           1           1           1           1
          -2          -2          -3           0           0           0
           1           0           0           0           1           0
           0           0           1           0           0           0
           1
Number of primitives per shell             I   N=          31
           6           3           1           1           1           1
           1           4           2           1           1           1
           1           1           1           3           1           1
           1           3           1           1           1           3
           1           1           1           3           1           1
           1
Shell to atom map                          I   N=          31
           1           1           1           1           1           1
           1           1           1           1           1           1
           1           1           1           2           2           2
           2           3           3           3           3           4
           4           4           4           5           5           5
           5
Primitive exponents                        R   N=          50
  6.93792300E+04  1.03549400E+04  2.33387960E+03  6.57142950E+02  2.14301130E+02
  7.76291680E+01  7.76291680E+01  3.06308070E+01  1.28012950E+01  3.92686600E+00
  1.45234300E+00  2.56234000E-01  9.42790000E-02  3.31000000E-02  3.35483190E+02
  7.89003660E+01  2.49881500E+01  9.21971100E+00  3.62114000E+00  1.45131000E+00
  5.04977000E-01  1.86317000E-01  6.54320000E-02  9.00000000E-01  2.25000000E-01
  3.20000000E-01  3.38650000E+01  5.09479000E+00  1.15879000E+00  3.25840000E-01
  1.02741000E-01  7.50000000E-01  3.38650000E+01  5.09479000E+00  1.15879000E+00
  3.25840000E-01  1.02741000E-01  7.50000000E-01  3.38650000E+01  5.09479000E+00
  1.15879000E+00  3.25840000E-01  1.02741000E-01  7.50000000E-01  3.38650000E+01
  5.09479000E+00  1.15879000E+00  3.25840000E-01  1.02741000E-01  7.50000000E-01
Contraction coefficients                   R   N=          50
  7.57000408E-04  5.93200320E-03  3.10880168E-02  1.24967067E-01  3.86897209E-01
  5.54888299E-01  1.77880945E-01  6.27764806E-01  2.47622924E-01  1.00000000E+00
  1.00000000E+00  1.00000000E+00  1.00000000E+00  1.00000000E+00  8.86599815E-03
  6.82989857E-02  2.90957939E-01  7.32116847E-01  6.19879440E-01  4.39148312E-01
  1.00000000E+00  1.00000000E+00  1.00000000E+00  1.00000000E+00  1.00000000E+00
  1.00000000E+00  2.54938145E-02  1.90373109E-01  8.52161486E-01  1.00000000E+00
  1.00000000E+00  1.00000000E+00  2.54938145E-02  1.90373109E-01  8.52161486E-01
  1.00000000E+00  1.00000000E+00  1.00000000E+00  2.54938145E-02  1.90373109E-01
  8.52161486E-01  1.00000000E+00  1.00000000E+00  1.00000000E+00  2.54938145E-02
  1.90373109E-01  8.52161486E-01  1.00000000E+00  1.00000000E+00  1.00000000E+00
P(S=P) Contraction coefficients            R   N=          50
  0.00000000E+00  0.00000000E+00  0.00000000E+00  0.00000000E+00  0.00000000E+00
  0.00000000E+00  0.00000000E+00  0.00000000E+00  0.00000000E+00  0.00000000E+00
  0.00000000E+00  0.00000000E+00  0.00000000E+00  1.00000000E+00  0.00000000E+00
  0.00000000E+00  0.00000000E+00  0.00000000E+00  0.00000000E+00  0.00000000E+00
  0.00000000E+00  0.00000000E+00  0.00000000E+00  0.00000000E+00  0.00000000E+00
  0.00000000E+00  0.00000000E+00  0.00000000E+00  0.00000000E+00  0.00000000E+00
  0.00000000E+00  0.00000000E+00  0.00000000E+00  0.00000000E+00  0.00000000E+00
  0.00000000E+00  0.00000000E+00  0.00000000E+00  0.00000000E+00  0.00000000E+00
  0.00000000E+00  0.00000000E+00  0.00000000E+00  0.00000000E+00  0.00000000E+00
  0.00000000E+00  0.00000000E+00  0.00000000E+00  0.00000000E+00  0.00000000E+00
Coordinates of each shell                  R   N=          93
  0.00000000E+00  0.00000000E+00  0.00000000E+00  0.00000000E+00  0.00000000E+00
  0.00000000E+00  0.00000000E+00  0.00000000E+00  0.00000000E+00  0.00000000E+00
  0.00000000E+00  0.00000000E+00  0.00000000E+00  0.00000000E+00  0.00000000E+00
  0.00000000E+00  0.00000000E+00  0.00000000E+00  0.00000000E+00  0.00000000E+00
  0.00000000E+00  0.00000000E+00  0.00000000E+00  0.00000000E+00  0.00000000E+00
  0.00000000E+00  0.00000000E+00  0.00000000E+00  0.00000000E+00  0.00000000E+00
  0.00000000E+00  0.00000000E+00  0.00000000E+00  0.00000000E+00  0.00000000E+00
  0.00000000E+00  0.00000000E+00  0.00000000E+00  0.00000000E+00  0.00000000E+00
  0.00000000E+00  0.00000000E+00  0.00000000E+00  0.00000000E+00  0.00000000E+00
  1.61584219E+00  1.61584219E+00  1.61584219E+00  1.61584219E+00  1.61584219E+00
  1.61584219E+00  1.61584219E+00  1.61584219E+00  1.61584219E+00  1.61584219E+00
  1.61584219E+00  1.61584219E+00 -1.61584219E+00 -1.61584219E+00  1.61584219E+00
 -1.61584219E+00 -1.61584219E+00  1.61584219E+00 -1.61584219E+00 -1.61584219E+00
  1.61584219E+00 -1.61584219E+00 -1.61584219E+00  1.61584219E+00 -1.61584219E+00
  1.61584219E+00 -1.61584219E+00 -1.61584219E+00  1.61584219E+00 -1.61584219E+00
 -1.61584219E+00  1.61584219E+00 -1.61584219E+00 -1.61584219E+00  1.61584219E+00
 -1.61584219E+00  1.61584219E+00 -1.61584219E+00 -1.61584219E+00  1.61584219E+00
 -1.61584219E+00 -1.61584219E+00  1.61584219E+00 -1.61584219E+00 -1.61584219E+00
  1.61584219E+00 -1.61584219E+00 -1.61584219E+00
Num ILSW                                   I              100
ILSW                                       I   N=         100
           0           0           0           0           2           0
           0           0           0           0         402          -1
           5           0           0           0           2           0
           0           0           1           0           1           0
           1           0           0           0           0           0
           0           0      100000           0          -1           0
           0           0           0           0           0           0
           0           0           0           1           0           0
           0 -2000000000           1           0           0           0
           0           0           4          52           0           0
           0           0           5           0           0           0
           0           0           0           0           0           1
           0           0           0           0           0           0
           0           0           0           0           0           0
           0           0           0           0           0           0
           0           0           0           0           0           0
           0           0           0           0
Num RLSW                                   I               52
RLSW                                       R   N=          52
  8.00000000E-01  7.20000000E-01  1.00000000E+00  8.10000000E-01  2.00000000E-01
  0.00000000E+00  0.00000000E+00  1.00000000E+00  0.00000000E+00  0.00000000E+00
  0.00000000E+00  0.00000000E+00  1.00000000E+00  0.00000000E+00  0.00000000E+00
  0.00000000E+00  0.00000000E+00  1.00000000E+00  0.00000000E+00  0.00000000E+00
  0.00000000E+00  0.00000000E+00  1.00000000E+00  0.00000000E+00  0.00000000E+00
  0.00000000E+00  0.00000000E+00  1.00000000E+00  0.00000000E+00  0.00000000E+00
  0.00000000E+00  0.00000000E+00  1.00000000E+00  0.00000000E+00  0.00000000E+00
  0.00000000E+00  0.00000000E+00  0.00000000E+00  1.00000000E+00  1.00000000E+00
  0.00000000E+00  1.00000000E+00  0.00000000E+00  0.00000000E+00  0.00000000E+00
  0.00000000E+00  0.00000000E+00  0.00000000E+00  0.00000000E+00  0.00000000E+00
  0.00000000E+00  0.00000000E+00
MxBond                                     I                4
NBond                                      I   N=           5
           4           1           1           1           1
IBond                                      I   N=          20
           2           3           4           5           1           0
           0           0           1           0           0           0
           1           0           0           0           1           0
           0           0
RBond                                      R   N=          20
  1.00000000E+00  1.00000000E+00  1.00000000E+00  1.00000000E+00  1.00000000E+00
  0.00000000E+00  0.00000000E+00  0.00000000E+00  1.00000000E+00  0.00000000E+00
  0.00000000E+00  0.00000000E+00  1.00000000E+00  0.00000000E+00  0.00000000E+00
  0.00000000E+00  1.00000000E+00  0.00000000E+00  0.00000000E+00  0.00000000E+00
Virial Ratio                               R      2.002056383655073E+00
SCF Energy                                 R     -2.919173582299308E+02
Total Energy                               R     -2.919173582299308E+02
RMS Force                                  R      1.361809661169847E-04
RMS Density                                R      8.327854051021248E-09
Job Status                                 I                1
Nuclear derivative order                   I                1
External E-field                           R   N=          35
  0.00000000E+00  0.00000000E+00  0.00000000E+00  0.00000000E+00  0.00000000E+00
  0.00000000E+00  0.00000000E+00  0.00000000E+00  0.00000000E+00  0.00000000E+00
  0.00000000E+00  0.00000000E+00  0.00000000E+00  0.00000000E+00  0.00000000E+00
  0.00000000E+00  0.00000000E+00  0.00000000E+00  0.00000000E+00  0.00000000E+00
  0.00000000E+00  0.00000000E+00  0.00000000E+00  0.00000000E+00  0.00000000E+00
  0.00000000E+00  0.00000000E+00  0.00000000E+00  0.00000000E+00  0.00000000E+00
  0.00000000E+00  0.00000000E+00  0.00000000E+00  0.00000000E+00  0.00000000E+00
IOpCl                                      I                0
IROHF                                      I                0
Alpha Orbital Energies                     R   N=          66
 -6.60954940E+01 -5.27044336E+00 -3.62834140E+00 -3.62834140E+00 -3.62834140E+00
 -5.49789114E-01 -3.55231479E-01 -3.55231479E-01 -3.55231479E-01  3.20169078E-03
  2.54375153E-02  2.54375153E-02  2.54375153E-02  5.00971670E-02  5.00971670E-02
  5.00971670E-02  1.36849173E-01  2.57092219E-01  2.57092219E-01  2.61443720E-01
  2.61443720E-01  2.61443720E-01  3.36890099E-01  3.36890099E-01  3.36890099E-01
  3.80413556E-01  4.86007193E-01  6.35627639E-01  6.35627639E-01  6.35627639E-01
  8.47276963E-01  8.47276963E-01  8.47276963E-01  1.03171888E+00  1.03171888E+00
  1.03171888E+00  1.23880934E+00  1.24236196E+00  1.24236196E+00  1.24236196E+00
  1.54487477E+00  1.54487477E+00  1.54487477E+00  1.58911617E+00  1.58911617E+00
  1.82520415E+00  1.82520415E+00  1.91057452E+00  1.91057452E+00  1.91057452E+00
  1.94295751E+00  1.94295751E+00  1.94295751E+00  2.10442289E+00  2.36402706E+00
  2.36402706E+00  2.36402706E+00  2.65131539E+00  2.87983643E+00  2.87983643E+00
  2.87983643E+00  5.98688879E+00  1.14220860E+01  1.14220860E+01  1.14220860E+01
  1.41432899E+02
Alpha MO coefficients                      R   N=        4356
  4.17579998E-01  6.46753162E-01  1.42219345E-02 -5.27960362E-03  2.56014039E-03
 -9.50192291E-04 -2.10273396E-04  0.00000000E+00  0.00000000E+00  0.00000000E+00
  0.00000000E+00  0.00000000E+00  0.00000000E+00  0.00000000E+00  0.00000000E+00
  0.00000000E+00  0.00000000E+00  0.00000000E+00  0.00000000E+00  0.00000000E+00
  0.00000000E+00  0.00000000E+00  0.00000000E+00  0.00000000E+00  0.00000000E+00
  1.60011719E-16  0.00000000E+00  0.00000000E+00  2.14044647E-17  0.00000000E+00
 -3.92397440E-16  0.00000000E+00  0.00000000E+00 -3.65376454E-17  0.00000000E+00
  0.00000000E+00  0.00000000E+00  0.00000000E+00  0.00000000E+00  6.50332444E-04
  0.00000000E+00  0.00000000E+00  2.52143820E-05 -7.45413316E-04  4.39844822E-04
  1.87434961E-04  1.87434961E-04  1.87434961E-04  2.52143820E-05 -7.45413316E-04
  4.39844822E-04 -1.87434961E-04 -1.87434961E-04  1.87434961E-04  2.52143820E-05
 -7.45413316E-04  4.39844822E-04 -1.87434961E-04  1.87434961E-04 -1.87434961E-04
  2.52143820E-05 -7.45413316E-04  4.39844822E-04  1.87434961E-04 -1.87434961E-04
 -1.87434961E-04 -1.17004278E-01 -3.03845358E-01  5.36610284E-01  5.69459652E-01
  6.14387458E-02 -2.79829525E-02 -1.42423946E-03  0.00000000E+00  0.00000000E+00
  0.00000000E+00  0.00000000E+00  0.00000000E+00  0.00000000E+00  0.00000000E+00
  0.00000000E+00  0.00000000E+00  0.00000000E+00  0.00000000E+00  0.00000000E+00
  0.00000000E+00  0.00000000E+00  0.00000000E+00  0.00000000E+00  0.00000000E+00
  0.00000000E+00  2.32014617E-16  0.00000000E+00  0.00000000E+00  1.76818434E-17
  0.00000000E+00 -9.31228359E-17  0.00000000E+00  0.00000000E+00 -2.07156539E-17
  0.00000000E+00  0.00000000E+00  0.00000000E+00  0.00000000E+00  0.00000000E+00
  7.00440350E-03  0.00000000E+00  0.00000000E+00  9.43880350E-05 -7.77375538E-03
  7.36324503E-03  1.55059639E-03  1.55059639E-03  1.55059639E-03  9.43880350E-05
 -7.77375538E-03  7.36324503E-03 -1.55059639E-03 -1.55059639E-03  1.55059639E-03
  9.43880350E-05 -7.77375538E-03  7.36324503E-03 -1.55059639E-03  1.55059639E-03
 -1.55059639E-03  9.43880350E-05 -7.77375538E-03  7.36324503E-03  1.55059639E-03
 -1.55059639E-03 -1.55059639E-03  0.00000000E+00  0.00000000E+00  0.00000000E+00
  0.00000000E+00  0.00000000E+00  0.00000000E+00  0.00000000E+00 -2.67097948E-03
  0.00000000E+00  0.00000000E+00  4.03736067E-01  0.00000000E+00  0.00000000E+00
  6.88257945E-01  0.00000000E+00  0.00000000E+00  6.18154133E-02  0.00000000E+00
  0.00000000E+00 -1.07788724E-02  0.00000000E+00  0.00000000E+00  6.56969662E-03
  0.00000000E+00  0.00000000E+00  0.00000000E+00  0.00000000E+00  1.46889131E-04
  0.00000000E+00  0.00000000E+00  0.00000000E+00  0.00000000E+00  4.76979099E-04
  0.00000000E+00  0.00000000E+00  0.00000000E+00  1.47647373E-04  0.00000000E+00
  0.00000000E+00  0.00000000E+00 -1.90611939E-04  0.00000000E+00  3.91777560E-04
  4.27906616E-04 -5.82384274E-04  2.31253847E-04  1.15246181E-05  1.15246181E-05
 -3.91777560E-04 -4.27906616E-04  5.82384274E-04  2.31253847E-04  1.15246181E-05
 -1.15246181E-05 -3.91777560E-04 -4.27906616E-04  5.82384274E-04  2.31253847E-04
 -1.15246181E-05  1.15246181E-05  3.91777560E-04  4.27906616E-04 -5.82384274E-04
  2.31253847E-04 -1.15246181E-05 -1.15246181E-05  0.00000000E+00  0.00000000E+00
  0.00000000E+00  0.00000000E+00  0.00000000E+00  0.00000000E+00  0.00000000E+00
  0.00000000E+00 -2.67097948E-03  0.00000000E+00  0.00000000E+00  4.03736067E-01
  0.00000000E+00  0.00000000E+00  6.88257945E-01  0.00000000E+00  0.00000000E+00
  6.18154133E-02  0.00000000E+00  0.00000000E+00 -1.07788724E-02  0.00000000E+00
  0.00000000E+00  6.56969662E-03  0.00000000E+00  0.00000000E+00  1.46889131E-04
  0.00000000E+00  0.00000000E+00  0.00000000E+00  0.00000000E+00  4.76979099E-04
  0.00000000E+00  0.00000000E+00  0.00000000E+00  0.00000000E+00  0.00000000E+00
  1.47647373E-04  0.00000000E+00  0.00000000E+00  0.00000000E+00  1.90611939E-04
  3.91777560E-04  4.27906616E-04 -5.82384274E-04  1.15246181E-05  2.31253847E-04
  1.15246181E-05 -3.91777560E-04 -4.27906616E-04  5.82384274E-04  1.15246181E-05
  2.31253847E-04 -1.15246181E-05  3.91777560E-04  4.27906616E-04 -5.82384274E-04
 -1.15246181E-05  2.31253847E-04 -1.15246181E-05 -3.91777560E-04 -4.27906616E-04
  5.82384274E-04 -1.15246181E-05  2.31253847E-04  1.15246181E-05  0.00000000E+00
  0.00000000E+00  0.00000000E+00  0.00000000E+00  0.00000000E+00  0.00000000E+00
  0.00000000E+00  0.00000000E+00  0.00000000E+00 -2.67097948E-03  0.00000000E+00
  0.00000000E+00  4.03736067E-01  0.00000000E+00  0.00000000E+00  6.88257945E-01
  0.00000000E+00  0.00000000E+00  6.18154133E-02  0.00000000E+00  0.00000000E+00
 -1.07788724E-02  0.00000000E+00  0.00000000E+00  6.56969662E-03  0.00000000E+00
  0.00000000E+00  0.00000000E+00  0.00000000E+00  1.46889131E-04  0.00000000E+00
  0.00000000E+00  0.00000000E+00  0.00000000E+00  4.76979099E-04 -2.41107150E-04
  0.00000000E+00  0.00000000E+00 -3.96293382E-17  0.00000000E+00  0.00000000E+00
  0.00000000E+00  3.91777560E-04  4.27906616E-04 -5.82384274E-04  1.15246181E-05
  1.15246181E-05  2.31253847E-04  3.91777560E-04  4.27906616E-04 -5.82384274E-04
 -1.15246181E-05 -1.15246181E-05  2.31253847E-04 -3.91777560E-04 -4.27906616E-04
  5.82384274E-04  1.15246181E-05 -1.15246181E-05  2.31253847E-04 -3.91777560E-04
 -4.27906616E-04  5.82384274E-04 -1.15246181E-05  1.15246181E-05  2.31253847E-04
  2.74021094E-02  7.51640195E-02 -1.70990786E-01 -2.77081863E-01  5.00789116E-01
  2.95424117E-01  1.01328318E-03  0.00000000E+00  0.00000000E+00  0.00000000E+00
  0.00000000E+00  0.00000000E+00  0.00000000E+00  0.00000000E+00  0.00000000E+00
  0.00000000E+00  0.00000000E+00  0.00000000E+00  0.00000000E+00  0.00000000E+00
  0.00000000E+00  0.00000000E+00  0.00000000E+00  0.00000000E+00  0.00000000E+00
 -5.81089639E-16  0.00000000E+00  0.00000000E+00 -1.49148881E-16  0.00000000E+00
  1.57666913E-15  0.00000000E+00  0.00000000E+00  3.77173322E-16  0.00000000E+00
  0.00000000E+00  0.00000000E+00  0.00000000E+00  0.00000000E+00  1.41598932E-02
  0.00000000E+00  0.00000000E+00  7.53437999E-02  1.06158523E-01  2.35701153E-02
 -7.19101775E-03 -7.19101775E-03 -7.19101775E-03  7.53437999E-02  1.06158523E-01
  2.35701153E-02  7.19101775E-03  7.19101775E-03 -7.19101775E-03  7.53437999E-02
  1.06158523E-01  2.35701153E-02  7.19101775E-03 -7.19101775E-03  7.19101775E-03
  7.53437999E-02  1.06158523E-01  2.35701153E-02 -7.19101775E-03  7.19101775E-03
  7.19101775E-03  0.00000000E+00  0.00000000E+00  0.00000000E+00  0.00000000E+00
  0.00000000E+00  0.00000000E+00  0.00000000E+00  0.00000000E+00  0.00000000E+00
  5.08010963E-04  0.00000000E+00  0.00000000E+00 -7.24630500E-02  0.00000000E+00
  0.00000000E+00 -1.26496107E-01  0.00000000E+00  0.00000000E+00  1.59507297E-01
  0.00000000E+00  0.00000000E+00  2.72323424E-01  0.00000000E+00  0.00000000E+00
  7.75073680E-02  0.00000000E+00  0.00000000E+00  0.00000000E+00  0.00000000E+00
  3.66446784E-02  0.00000000E+00  0.00000000E+00  0.00000000E+00  0.00000000E+00
  5.49315603E-02 -3.58354994E-03  0.00000000E+00  0.00000000E+00  5.74330516E-16
  0.00000000E+00  0.00000000E+00  0.00000000E+00  1.03138691E-01  1.67483903E-01
  1.06192644E-01 -1.00086650E-02 -1.00086650E-02 -3.81583988E-03  1.03138691E-01
  1.67483903E-01  1.06192644E-01  1.00086650E-02  1.00086650E-02 -3.81583988E-03
 -1.03138691E-01 -1.67483903E-01 -1.06192644E-01 -1.00086650E-02  1.00086650E-02
 -3.81583988E-03 -1.03138691E-01 -1.67483903E-01 -1.06192644E-01  1.00086650E-02
 -1.00086650E-02 -3.81583988E-03  0.00000000E+00  0.00000000E+00  0.00000000E+00
  0.00000000E+00  0.00000000E+00  0.00000000E+00  0.00000000E+00  5.08010963E-04
  0.00000000E+00  0.00000000E+00 -7.24630500E-02  0.00000000E+00  0.00000000E+00
 -1.26496107E-01  0.00000000E+00  0.00000000E+00  1.59507297E-01  0.00000000E+00
  0.00000000E+00  2.72323424E-01  0.00000000E+00  0.00000000E+00  7.75073680E-02
  0.00000000E+00  0.00000000E+00  0.00000000E+00  0.00000000E+00  3.66446784E-02
  0.00000000E+00  0.00000000E+00  0.00000000E+00  0.00000000E+00  5.49315603E-02
  0.00000000E+00  0.00000000E+00  0.00000000E+00  2.19446721E-03  0.00000000E+00
  0.00000000E+00  0.00000000E+00 -2.83304498E-03  0.00000000E+00  1.03138691E-01
  1.67483903E-01  1.06192644E-01 -3.81583988E-03 -1.00086650E-02 -1.00086650E-02
 -1.03138691E-01 -1.67483903E-01 -1.06192644E-01 -3.81583988E-03 -1.00086650E-02
  1.00086650E-02 -1.03138691E-01 -1.67483903E-01 -1.06192644E-01 -3.81583988E-03
  1.00086650E-02 -1.00086650E-02  1.03138691E-01  1.67483903E-01  1.06192644E-01
 -3.81583988E-03  1.00086650E-02  1.00086650E-02  0.00000000E+00  0.00000000E+00
  0.00000000E+00  0.00000000E+00  0.00000000E+00  0.00000000E+00  0.00000000E+00
  0.00000000E+00  5.08010963E-04  0.00000000E+00  0.00000000E+00 -7.24630500E-02
  0.00000000E+00  0.00000000E+00 -1.26496107E-01  0.00000000E+00  0.00000000E+00
  1.59507297E-01  0.00000000E+00  0.00000000E+00  2.72323424E-01  0.00000000E+00
  0.00000000E+00  7.75073680E-02  0.00000000E+00  0.00000000E+00  3.66446784E-02
  0.00000000E+00  0.00000000E+00  0.00000000E+00  0.00000000E+00  5.49315603E-02
  0.00000000E+00  0.00000000E+00  0.00000000E+00  0.00000000E+00  0.00000000E+00
  2.19446721E-03  0.00000000E+00  0.00000000E+00  0.00000000E+00  2.83304498E-03
  1.03138691E-01  1.67483903E-01  1.06192644E-01 -1.00086650E-02 -3.81583988E-03
 -1.00086650E-02 -1.03138691E-01 -1.67483903E-01 -1.06192644E-01 -1.00086650E-02
 -3.81583988E-03  1.00086650E-02  1.03138691E-01  1.67483903E-01  1.06192644E-01
  1.00086650E-02 -3.81583988E-03  1.00086650E-02 -1.03138691E-01 -1.67483903E-01
 -1.06192644E-01  1.00086650E-02 -3.81583988E-03 -1.00086650E-02 -1.46637661E-02
 -4.05642240E-02  9.57981455E-02  1.58024941E-01 -2.18814447E-01 -1.31753158E+00
  1.61962474E+00  0.00000000E+00  0.00000000E+00  0.00000000E+00  0.00000000E+00
  0.00000000E+00  0.00000000E+00  0.00000000E+00  0.00000000E+00  0.00000000E+00
  0.00000000E+00  0.00000000E+00  0.00000000E+00  0.00000000E+00  0.00000000E+00
  0.00000000E+00  0.00000000E+00  0.00000000E+00  0.00000000E+00 -1.70547255E-15
  0.00000000E+00  0.00000000E+00  2.11370867E-15  0.00000000E+00  1.15955171E-14
  0.00000000E+00  0.00000000E+00 -1.30096131E-15  0.00000000E+00  0.00000000E+00
  0.00000000E+00  0.00000000E+00  0.00000000E+00 -3.49778705E-02  0.00000000E+00
  0.00000000E+00  7.00824798E-03  9.21103847E-02  2.76833304E-02  2.53502288E-03
  2.53502288E-03  2.53502288E-03  7.00824798E-03  9.21103847E-02  2.76833304E-02
 -2.53502288E-03 -2.53502288E-03  2.53502288E-03  7.00824798E-03  9.21103847E-02
  2.76833304E-02 -2.53502288E-03  2.53502288E-03 -2.53502288E-03  7.00824798E-03
  9.21103847E-02  2.76833304E-02  2.53502288E-03 -2.53502288E-03 -2.53502288E-03
  0.00000000E+00  0.00000000E+00  0.00000000E+00  0.00000000E+00  0.00000000E+00
  0.00000000E+00  0.00000000E+00  0.00000000E+00  8.22045208E-01  0.00000000E+00
  0.00000000E+00 -1.97729634E-02  0.00000000E+00  0.00000000E+00 -3.17963711E-02
  0.00000000E+00  0.00000000E+00  2.58385432E-02  0.00000000E+00  0.00000000E+00
  1.96641912E-01  0.00000000E+00  0.00000000E+00  5.99964893E-01  0.00000000E+00
  0.00000000E+00 -5.48515494E-02  0.00000000E+00  0.00000000E+00  0.00000000E+00
  0.00000000E+00 -1.77135155E-01  0.00000000E+00  0.00000000E+00  0.00000000E+00
  0.00000000E+00  0.00000000E+00 -1.38586883E-02  0.00000000E+00  0.00000000E+00
  0.00000000E+00 -1.78914897E-02 -5.38756384E-02 -3.67049994E-02 -5.87822267E-01
 -3.99275079E-03  1.15685724E-02 -3.99275079E-03  5.38756384E-02  3.67049994E-02
  5.87822267E-01 -3.99275079E-03  1.15685724E-02  3.99275079E-03 -5.38756384E-02
 -3.67049994E-02 -5.87822267E-01  3.99275079E-03  1.15685724E-02  3.99275079E-03
  5.38756384E-02  3.67049994E-02  5.87822267E-01  3.99275079E-03  1.15685724E-02
 -3.99275079E-03  0.00000000E+00  0.00000000E+00  0.00000000E+00  0.00000000E+00
  0.00000000E+00  0.00000000E+00  0.00000000E+00  8.22045208E-01  0.00000000E+00