 sdf
GAUSSIAN             14 MOL ORBITALS     66 PRIMITIVES        1 NUCLEI
  Si   1    (CENTRE  1)   0.00000000  0.00000000  0.00000000  CHARGE = 14.0
CENTRE ASSIGNMENTS    1  1  1  1  1  1  1  1  1  1  1  1  1  1  1  1  1  1  1  1
CENTRE ASSIGNMENTS    1  1  1  1  1  1  1  1  1  1  1  1  1  1  1  1  1  1  1  1
CENTRE ASSIGNMENTS    1  1  1  1  1  1  1  1  1  1  1  1  1  1  1  1  1  1  1  1
CENTRE ASSIGNMENTS    1  1  1  1  1  1
TYPE ASSIGNMENTS      1  1  1  1  1  1  1  1  1  1  1  1  1  1  2  3  4  2  2  2
TYPE ASSIGNMENTS      2  3  3  3  3  4  4  4  4  2  2  3  3  4  4  2  3  4  2  3
TYPE ASSIGNMENTS      4  2  3  4  5  6  7  8  9 10  5  6  7  8  9 10 11 12 13 17
TYPE ASSIGNMENTS     14 15 18 19 16 20
EXPONENTS  0.6937923D+05 0.1035494D+05 0.2333880D+04 0.6571430D+03 0.2143011D+03
EXPONENTS  0.7762917D+02 0.7762917D+02 0.3063081D+02 0.1280130D+02 0.3926866D+01
EXPONENTS  0.1452343D+01 0.2562340D+00 0.9427900D-01 0.3310000D-01 0.3310000D-01
EXPONENTS  0.3310000D-01 0.3310000D-01 0.3354832D+03 0.7890037D+02 0.2498815D+02
EXPONENTS  0.9219711D+01 0.3354832D+03 0.7890037D+02 0.2498815D+02 0.9219711D+01
EXPONENTS  0.3354832D+03 0.7890037D+02 0.2498815D+02 0.9219711D+01 0.3621140D+01
EXPONENTS  0.1451310D+01 0.3621140D+01 0.1451310D+01 0.3621140D+01 0.1451310D+01
EXPONENTS  0.5049770D+00 0.5049770D+00 0.5049770D+00 0.1863170D+00 0.1863170D+00
EXPONENTS  0.1863170D+00 0.6543200D-01 0.6543200D-01 0.6543200D-01 0.9000000D+00
EXPONENTS  0.9000000D+00 0.9000000D+00 0.9000000D+00 0.9000000D+00 0.9000000D+00
EXPONENTS  0.2250000D+00 0.2250000D+00 0.2250000D+00 0.2250000D+00 0.2250000D+00
EXPONENTS  0.2250000D+00 0.3200000D+00 0.3200000D+00 0.3200000D+00 0.3200000D+00
EXPONENTS  0.3200000D+00 0.3200000D+00 0.3200000D+00 0.3200000D+00 0.3200000D+00
EXPONENTS  0.3200000D+00
MO    1     MO 0.0        OCC NO =    1.0000000  ORB. ENERGY =  -66.143156
  0.96300697D+00  0.18120629D+01  0.31064407D+01  0.48267153D+01  0.64487443D+01
  0.43185254D+01  0.21446140D+01  0.37680513D+01  0.77256012D+00  0.27650823D-01
 -0.43627599D-02  0.46802776D-03 -0.15367706D-03  0.23040188D-04  0.00000000D+00
  0.00000000D+00  0.00000000D+00  0.00000000D+00  0.00000000D+00  0.00000000D+00
  0.00000000D+00  0.00000000D+00  0.00000000D+00  0.00000000D+00  0.00000000D+00
  0.00000000D+00  0.00000000D+00  0.00000000D+00  0.00000000D+00  0.00000000D+00
  0.00000000D+00  0.00000000D+00  0.00000000D+00  0.00000000D+00  0.00000000D+00
  0.00000000D+00  0.00000000D+00  0.00000000D+00  0.00000000D+00  0.00000000D+00
  0.00000000D+00  0.00000000D+00  0.00000000D+00  0.00000000D+00 -0.16073208D-05
 -0.16073208D-05  0.32146416D-05  0.00000000D+00  0.00000000D+00  0.00000000D+00
 -0.82836265D-07 -0.82836265D-07  0.16567253D-06  0.00000000D+00  0.00000000D+00
  0.00000000D+00  0.00000000D+00  0.00000000D+00  0.00000000D+00  0.00000000D+00
  0.00000000D+00  0.00000000D+00  0.00000000D+00  0.00000000D+00  0.00000000D+00
  0.00000000D+00
MO    2     MO 0.0        OCC NO =    1.0000000  ORB. ENERGY =   -5.308662
 -0.27019030D+00 -0.50840942D+00 -0.87157222D+00 -0.13542286D+01 -0.18093203D+01
 -0.12116461D+01 -0.10080905D+01 -0.17711984D+01 -0.36314718D+00  0.10668044D+01
  0.54024014D+00  0.13999519D-01 -0.32126225D-02  0.44548664D-03  0.00000000D+00
  0.00000000D+00  0.00000000D+00  0.00000000D+00  0.00000000D+00  0.00000000D+00
  0.00000000D+00  0.00000000D+00  0.00000000D+00  0.00000000D+00  0.00000000D+00
  0.00000000D+00  0.00000000D+00  0.00000000D+00  0.00000000D+00  0.00000000D+00
  0.00000000D+00  0.00000000D+00  0.00000000D+00  0.00000000D+00  0.00000000D+00
  0.00000000D+00  0.00000000D+00  0.00000000D+00  0.00000000D+00  0.00000000D+00
  0.00000000D+00  0.00000000D+00  0.00000000D+00  0.00000000D+00 -0.51588904D-03
 -0.51588904D-03  0.10317781D-02  0.00000000D+00  0.00000000D+00  0.00000000D+00
  0.21465470D-04  0.21465470D-04 -0.42930940D-04  0.00000000D+00  0.00000000D+00
  0.00000000D+00  0.00000000D+00  0.00000000D+00  0.00000000D+00  0.00000000D+00
  0.00000000D+00  0.00000000D+00  0.00000000D+00  0.00000000D+00  0.00000000D+00
  0.00000000D+00
MO    3     MO 0.0        OCC NO =    1.0000000  ORB. ENERGY =   -3.670246
  0.00000000D+00  0.00000000D+00  0.00000000D+00  0.00000000D+00  0.00000000D+00
  0.00000000D+00  0.00000000D+00  0.00000000D+00  0.00000000D+00  0.00000000D+00
  0.00000000D+00  0.00000000D+00  0.00000000D+00  0.00000000D+00  0.00000000D+00
  0.00000000D+00 -0.59288214D-04  0.00000000D+00  0.00000000D+00  0.00000000D+00
  0.00000000D+00  0.00000000D+00  0.00000000D+00  0.00000000D+00  0.00000000D+00
  0.73281632D+01  0.92457484D+01  0.93578674D+01  0.67710509D+01  0.00000000D+00
  0.00000000D+00  0.00000000D+00  0.00000000D+00  0.30378339D+01  0.68629621D+00
  0.00000000D+00  0.00000000D+00  0.37424166D-01  0.00000000D+00  0.00000000D+00
 -0.19212987D-02  0.00000000D+00  0.00000000D+00  0.30847901D-03  0.00000000D+00
  0.00000000D+00  0.00000000D+00  0.00000000D+00  0.00000000D+00  0.00000000D+00
  0.00000000D+00  0.00000000D+00  0.00000000D+00  0.00000000D+00  0.00000000D+00
  0.00000000D+00  0.00000000D+00  0.00000000D+00 -0.61211195D-05  0.00000000D+00
  0.00000000D+00  0.91816793D-05  0.00000000D+00  0.00000000D+00  0.91816793D-05
  0.00000000D+00
MO    4     MO 0.0        OCC NO =    1.0000000  ORB. ENERGY =   -3.666845
  0.00000000D+00  0.00000000D+00  0.00000000D+00  0.00000000D+00  0.00000000D+00
  0.00000000D+00  0.00000000D+00  0.00000000D+00  0.00000000D+00  0.00000000D+00
  0.00000000D+00  0.00000000D+00  0.00000000D+00  0.00000000D+00 -0.52531621D-04
  0.00000000D+00  0.00000000D+00  0.73482358D+01  0.92710734D+01  0.93834995D+01
  0.67895975D+01  0.00000000D+00  0.00000000D+00  0.00000000D+00  0.00000000D+00
  0.00000000D+00  0.00000000D+00  0.00000000D+00  0.00000000D+00  0.30362298D+01
  0.68593383D+00  0.00000000D+00  0.00000000D+00  0.00000000D+00  0.00000000D+00
  0.36481164D-01  0.00000000D+00  0.00000000D+00 -0.17307213D-02  0.00000000D+00
  0.00000000D+00  0.27462583D-03  0.00000000D+00  0.00000000D+00  0.00000000D+00
  0.00000000D+00  0.00000000D+00  0.00000000D+00  0.00000000D+00  0.00000000D+00
  0.00000000D+00  0.00000000D+00  0.00000000D+00  0.00000000D+00  0.00000000D+00
  0.00000000D+00 -0.27954658D-06  0.00000000D+00  0.00000000D+00 -0.27954656D-06
  0.00000000D+00  0.00000000D+00  0.11181863D-05  0.00000000D+00  0.00000000D+00
  0.00000000D+00
MO    5     MO 0.0        OCC NO =    1.0000000  ORB. ENERGY =   -3.666845
  0.00000000D+00  0.00000000D+00  0.00000000D+00  0.00000000D+00  0.00000000D+00
  0.00000000D+00  0.00000000D+00  0.00000000D+00  0.00000000D+00  0.00000000D+00
  0.00000000D+00  0.00000000D+00  0.00000000D+00  0.00000000D+00  0.00000000D+00
 -0.52531621D-04  0.00000000D+00  0.00000000D+00  0.00000000D+00  0.00000000D+00
  0.00000000D+00  0.73482358D+01  0.92710734D+01  0.93834995D+01  0.67895975D+01
  0.00000000D+00  0.00000000D+00  0.00000000D+00  0.00000000D+00  0.00000000D+00
  0.00000000D+00  0.30362298D+01  0.68593383D+00  0.00000000D+00  0.00000000D+00
  0.00000000D+00  0.36481164D-01  0.00000000D+00  0.00000000D+00 -0.17307213D-02
  0.00000000D+00  0.00000000D+00  0.27462583D-03  0.00000000D+00  0.00000000D+00
  0.00000000D+00  0.00000000D+00  0.00000000D+00  0.00000000D+00  0.00000000D+00
  0.00000000D+00  0.00000000D+00  0.00000000D+00  0.00000000D+00  0.00000000D+00
  0.00000000D+00  0.00000000D+00 -0.27954658D-06  0.00000000D+00  0.00000000D+00
 -0.27954656D-06  0.00000000D+00  0.00000000D+00  0.11181863D-05  0.00000000D+00
  0.00000000D+00
MO    6     MO 0.0        OCC NO =    1.0000000  ORB. ENERGY =   -0.455901
  0.75567403D-01  0.14219304D+00  0.24376319D+00  0.37875358D+00  0.50603461D+00
  0.33887579D+00  0.29777845D+00  0.52319180D+00  0.10726954D+00 -0.40619063D+00
 -0.32699812D+00  0.16762015D+00  0.61739943D-01  0.27319006D-03  0.00000000D+00
  0.00000000D+00  0.00000000D+00  0.00000000D+00  0.00000000D+00  0.00000000D+00
  0.00000000D+00  0.00000000D+00  0.00000000D+00  0.00000000D+00  0.00000000D+00
  0.00000000D+00  0.00000000D+00  0.00000000D+00  0.00000000D+00  0.00000000D+00
  0.00000000D+00  0.00000000D+00  0.00000000D+00  0.00000000D+00  0.00000000D+00
  0.00000000D+00  0.00000000D+00  0.00000000D+00  0.00000000D+00  0.00000000D+00
  0.00000000D+00  0.00000000D+00  0.00000000D+00  0.00000000D+00  0.18404290D-02
  0.18404290D-02 -0.36808579D-02  0.00000000D+00  0.00000000D+00  0.00000000D+00
  0.10047428D-02  0.10047428D-02 -0.20094856D-02  0.00000000D+00  0.00000000D+00
  0.00000000D+00  0.00000000D+00  0.00000000D+00  0.00000000D+00  0.00000000D+00
  0.00000000D+00  0.00000000D+00  0.00000000D+00  0.00000000D+00  0.00000000D+00
  0.00000000D+00
MO    7     MO 0.0        OCC NO =    1.0000000  ORB. ENERGY =   -0.194137
  0.00000000D+00  0.00000000D+00  0.00000000D+00  0.00000000D+00  0.00000000D+00
  0.00000000D+00  0.00000000D+00  0.00000000D+00  0.00000000D+00  0.00000000D+00
  0.00000000D+00  0.00000000D+00  0.00000000D+00  0.00000000D+00  0.61188057D-03
  0.00000000D+00  0.00000000D+00 -0.17737849D+01 -0.22379372D+01 -0.22650757D+01
 -0.16389357D+01  0.00000000D+00  0.00000000D+00  0.00000000D+00  0.00000000D+00
  0.00000000D+00  0.00000000D+00  0.00000000D+00  0.00000000D+00 -0.74943957D+00
 -0.16931062D+00  0.00000000D+00  0.00000000D+00  0.00000000D+00  0.00000000D+00
  0.13427403D+00  0.00000000D+00  0.00000000D+00  0.96784592D-01  0.00000000D+00
  0.00000000D+00  0.16893799D-01  0.00000000D+00  0.00000000D+00  0.00000000D+00
  0.00000000D+00  0.00000000D+00  0.00000000D+00  0.00000000D+00  0.00000000D+00
  0.00000000D+00  0.00000000D+00  0.00000000D+00  0.00000000D+00  0.00000000D+00
  0.00000000D+00  0.88037716D-04  0.00000000D+00  0.00000000D+00  0.88037723D-04
  0.00000000D+00  0.00000000D+00 -0.35215087D-03  0.00000000D+00  0.00000000D+00
  0.00000000D+00
MO    8     MO 0.0        OCC NO =    1.0000000  ORB. ENERGY =   -0.194137
  0.00000000D+00  0.00000000D+00  0.00000000D+00  0.00000000D+00  0.00000000D+00
  0.00000000D+00  0.00000000D+00  0.00000000D+00  0.00000000D+00  0.00000000D+00
  0.00000000D+00  0.00000000D+00  0.00000000D+00  0.00000000D+00  0.00000000D+00
  0.61188057D-03  0.00000000D+00  0.00000000D+00  0.00000000D+00  0.00000000D+00
  0.00000000D+00 -0.17737849D+01 -0.22379372D+01 -0.22650757D+01 -0.16389357D+01
  0.00000000D+00  0.00000000D+00  0.00000000D+00  0.00000000D+00  0.00000000D+00
  0.00000000D+00 -0.74943957D+00 -0.16931062D+00  0.00000000D+00  0.00000000D+00
  0.00000000D+00  0.13427403D+00  0.00000000D+00  0.00000000D+00  0.96784592D-01
  0.00000000D+00  0.00000000D+00  0.16893799D-01  0.00000000D+00  0.00000000D+00
  0.00000000D+00  0.00000000D+00  0.00000000D+00  0.00000000D+00  0.00000000D+00
  0.00000000D+00  0.00000000D+00  0.00000000D+00  0.00000000D+00  0.00000000D+00
  0.00000000D+00  0.00000000D+00  0.88037716D-04  0.00000000D+00  0.00000000D+00
  0.88037723D-04  0.00000000D+00  0.00000000D+00 -0.35215087D-03  0.00000000D+00
  0.00000000D+00
MO   43     MO 0.0        OCC NO =    1.0000000  ORB. ENERGY =  -66.136357
  0.96311715D+00  0.18122703D+01  0.31067961D+01  0.48272675D+01  0.64494820D+01
  0.43190195D+01  0.21445775D+01  0.37679871D+01  0.77254696D+00  0.27459779D-01
 -0.43147580D-02  0.46496616D-03 -0.15211375D-03  0.22826916D-04  0.00000000D+00
  0.00000000D+00  0.00000000D+00  0.00000000D+00  0.00000000D+00  0.00000000D+00
  0.00000000D+00  0.00000000D+00  0.00000000D+00  0.00000000D+00  0.00000000D+00
  0.00000000D+00  0.00000000D+00  0.00000000D+00  0.00000000D+00  0.00000000D+00
  0.00000000D+00  0.00000000D+00  0.00000000D+00  0.00000000D+00  0.00000000D+00
  0.00000000D+00  0.00000000D+00  0.00000000D+00  0.00000000D+00  0.00000000D+00
  0.00000000D+00  0.00000000D+00  0.00000000D+00  0.00000000D+00 -0.10445421D-05
 -0.10445421D-05  0.20890842D-05  0.00000000D+00  0.00000000D+00  0.00000000D+00
  0.27416600D-07  0.27416600D-07 -0.54833199D-07  0.00000000D+00  0.00000000D+00
  0.00000000D+00  0.00000000D+00  0.00000000D+00  0.00000000D+00  0.00000000D+00
  0.00000000D+00  0.00000000D+00  0.00000000D+00  0.00000000D+00  0.00000000D+00
  0.00000000D+00
MO   44     MO 0.0        OCC NO =    1.0000000  ORB. ENERGY =   -5.302053
 -0.27002628D+00 -0.50810080D+00 -0.87104314D+00 -0.13534066D+01 -0.18082220D+01
 -0.12109106D+01 -0.10073912D+01 -0.17699697D+01 -0.36289528D+00  0.10642920D+01
  0.54194863D+00  0.13644104D-01 -0.31743335D-02  0.43855833D-03  0.00000000D+00
  0.00000000D+00  0.00000000D+00  0.00000000D+00  0.00000000D+00  0.00000000D+00
  0.00000000D+00  0.00000000D+00  0.00000000D+00  0.00000000D+00  0.00000000D+00
  0.00000000D+00  0.00000000D+00  0.00000000D+00  0.00000000D+00  0.00000000D+00
  0.00000000D+00  0.00000000D+00  0.00000000D+00  0.00000000D+00  0.00000000D+00
  0.00000000D+00  0.00000000D+00  0.00000000D+00  0.00000000D+00  0.00000000D+00
  0.00000000D+00  0.00000000D+00  0.00000000D+00  0.00000000D+00 -0.89022027D-03
 -0.89022027D-03  0.17804405D-02  0.00000000D+00  0.00000000D+00  0.00000000D+00
  0.93845592D-05  0.93845592D-05 -0.18769118D-04  0.00000000D+00  0.00000000D+00
  0.00000000D+00  0.00000000D+00  0.00000000D+00  0.00000000D+00  0.00000000D+00
  0.00000000D+00  0.00000000D+00  0.00000000D+00  0.00000000D+00  0.00000000D+00
  0.00000000D+00
MO   45     MO 0.0        OCC NO =    1.0000000  ORB. ENERGY =   -3.666764
  0.00000000D+00  0.00000000D+00  0.00000000D+00  0.00000000D+00  0.00000000D+00
  0.00000000D+00  0.00000000D+00  0.00000000D+00  0.00000000D+00  0.00000000D+00
  0.00000000D+00  0.00000000D+00  0.00000000D+00  0.00000000D+00  0.00000000D+00
  0.00000000D+00 -0.62862163D-04  0.00000000D+00  0.00000000D+00  0.00000000D+00
  0.00000000D+00  0.00000000D+00  0.00000000D+00  0.00000000D+00  0.00000000D+00
  0.73225997D+01  0.92387290D+01  0.93507628D+01  0.67659103D+01  0.00000000D+00
  0.00000000D+00  0.00000000D+00  0.00000000D+00  0.30386284D+01  0.68647570D+00
  0.00000000D+00  0.00000000D+00  0.37656788D-01  0.00000000D+00  0.00000000D+00
 -0.20288201D-02  0.00000000D+00  0.00000000D+00  0.32641257D-03  0.00000000D+00
  0.00000000D+00  0.00000000D+00  0.00000000D+00  0.00000000D+00  0.00000000D+00
  0.00000000D+00  0.00000000D+00  0.00000000D+00  0.00000000D+00  0.00000000D+00
  0.00000000D+00  0.00000000D+00  0.00000000D+00  0.54326044D-04  0.00000000D+00
  0.00000000D+00 -0.81489065D-04  0.00000000D+00  0.00000000D+00 -0.81489065D-04
  0.00000000D+00
MO   46     MO 0.0        OCC NO =    1.0000000  ORB. ENERGY =   -3.653272
  0.00000000D+00  0.00000000D+00  0.00000000D+00  0.00000000D+00  0.00000000D+00
  0.00000000D+00  0.00000000D+00  0.00000000D+00  0.00000000D+00  0.00000000D+00
  0.00000000D+00  0.00000000D+00  0.00000000D+00  0.00000000D+00  0.00000000D+00
 -0.59411701D-04  0.00000000D+00  0.00000000D+00  0.00000000D+00  0.00000000D+00
  0.00000000D+00  0.73300892D+01  0.92481784D+01  0.93603268D+01  0.67728305D+01
  0.00000000D+00  0.00000000D+00  0.00000000D+00  0.00000000D+00  0.00000000D+00
  0.00000000D+00  0.30406583D+01  0.68693428D+00  0.00000000D+00  0.00000000D+00
  0.00000000D+00  0.36534320D-01  0.00000000D+00  0.00000000D+00 -0.19306093D-02
  0.00000000D+00  0.00000000D+00  0.30878760D-03  0.00000000D+00  0.00000000D+00
  0.00000000D+00  0.00000000D+00  0.00000000D+00  0.00000000D+00  0.00000000D+00
  0.00000000D+00  0.00000000D+00  0.00000000D+00  0.00000000D+00  0.00000000D+00
  0.00000000D+00  0.00000000D+00 -0.26632260D-04  0.00000000D+00  0.00000000D+00
 -0.26632260D-04  0.00000000D+00  0.00000000D+00  0.10652904D-03  0.00000000D+00
  0.00000000D+00
MO   47     MO 0.0        OCC NO =    1.0000000  ORB. ENERGY =   -3.653272
  0.00000000D+00  0.00000000D+00  0.00000000D+00  0.00000000D+00  0.00000000D+00
  0.00000000D+00  0.00000000D+00  0.00000000D+00  0.00000000D+00  0.00000000D+00
  0.00000000D+00  0.00000000D+00  0.00000000D+00  0.00000000D+00 -0.59411701D-04
  0.00000000D+00  0.00000000D+00  0.73300892D+01  0.92481784D+01  0.93603268D+01
  0.67728305D+01  0.00000000D+00  0.00000000D+00  0.00000000D+00  0.00000000D+00
  0.00000000D+00  0.00000000D+00  0.00000000D+00  0.00000000D+00  0.30406583D+01
  0.68693428D+00  0.00000000D+00  0.00000000D+00  0.00000000D+00  0.00000000D+00
  0.36534320D-01  0.00000000D+00  0.00000000D+00 -0.19306093D-02  0.00000000D+00
  0.00000000D+00  0.30878760D-03  0.00000000D+00  0.00000000D+00  0.00000000D+00
  0.00000000D+00  0.00000000D+00  0.00000000D+00  0.00000000D+00  0.00000000D+00
  0.00000000D+00  0.00000000D+00  0.00000000D+00  0.00000000D+00  0.00000000D+00
  0.00000000D+00 -0.26632260D-04  0.00000000D+00  0.00000000D+00 -0.26632260D-04
  0.00000000D+00  0.00000000D+00  0.10652904D-03  0.00000000D+00  0.00000000D+00
  0.00000000D+00
MO   48     MO 0.0        OCC NO =    1.0000000  ORB. ENERGY =   -0.391717
  0.75717938D-01  0.14247630D+00  0.24424879D+00  0.37950808D+00  0.50704266D+00
  0.33955085D+00  0.29990812D+00  0.52693359D+00  0.10803671D+00 -0.41726650D+00
 -0.31788938D+00  0.16627845D+00  0.59908133D-01  0.15454123D-02  0.00000000D+00
  0.00000000D+00  0.00000000D+00  0.00000000D+00  0.00000000D+00  0.00000000D+00
  0.00000000D+00  0.00000000D+00  0.00000000D+00  0.00000000D+00  0.00000000D+00
  0.00000000D+00  0.00000000D+00  0.00000000D+00  0.00000000D+00  0.00000000D+00
  0.00000000D+00  0.00000000D+00  0.00000000D+00  0.00000000D+00  0.00000000D+00
  0.00000000D+00  0.00000000D+00  0.00000000D+00  0.00000000D+00  0.00000000D+00
  0.00000000D+00  0.00000000D+00  0.00000000D+00  0.00000000D+00 -0.66991162D-02
 -0.66991162D-02  0.13398232D-01  0.00000000D+00  0.00000000D+00  0.00000000D+00
 -0.22033412D-02 -0.22033412D-02  0.44066825D-02  0.00000000D+00  0.00000000D+00
  0.00000000D+00  0.00000000D+00  0.00000000D+00  0.00000000D+00  0.00000000D+00
  0.00000000D+00  0.00000000D+00  0.00000000D+00  0.00000000D+00  0.00000000D+00
  0.00000000D+00
END DATA
 TOTAL ENERGY =     -289.394473485243 THE VIRIAL(-V/T)=   2.00170289
