Opted at B3LYP/def2-TZVP level                                          
SP        RwB97XD TD-FC                                               def2TZVP            
Number of atoms                            I                5
Info1-9                                    I   N=           9
          13          12           0           0           0         111
           1         218       -5801
Full Title                                 C   N=           3
Opted at B3LYP/def2-TZVP level      
Route                                      C   N=           5
# wb97xd/def2TZVP TD(nstates=50) IOp(9/40=4) nosymm         
Charge                                     I                0
Multiplicity                               I                1
Number of electrons                        I               26
Number of alpha electrons                  I               13
Number of beta electrons                   I               13
Number of basis functions                  I               86
Number of independent functions            I               86
Number of point charges in /Mol/           I                0
Number of translation vectors              I                0
Atomic numbers                             I   N=           5
           6           1           1           1          17
Nuclear charges                            R   N=           5
  6.00000000E+00  1.00000000E+00  1.00000000E+00  1.00000000E+00  1.70000000E+01
Current cartesian coordinates              R   N=          15
  0.00000000E+00  0.00000000E+00 -2.14285872E+00  0.00000000E+00  1.94802607E+00
 -2.78972331E+00 -1.68703977E+00 -9.74013977E-01 -2.78972331E+00  1.68703977E+00
 -9.74013977E-01 -2.78972331E+00  0.00000000E+00  0.00000000E+00  1.24860630E+00
Number of symbols in /Mol/                 I                0
Force Field                                I                0
Atom Types                                 C   N=           5
                                                            
Int Atom Types                             I   N=           5
           0           0           0           0           0
MM charges                                 R   N=           5
  0.00000000E+00  0.00000000E+00  0.00000000E+00  0.00000000E+00  0.00000000E+00
Integer atomic weights                     I   N=           5
          12           1           1           1          35
Real atomic weights                        R   N=           5
  1.20000000E+01  1.00782504E+00  1.00782504E+00  1.00782504E+00  3.49688527E+01
Atom fragment info                         I   N=           5
           0           0           0           0           0
Atom residue num                           I   N=           5
           0           0           0           0           0
Nuclear spins                              I   N=           5
           0           1           1           1           3
Nuclear ZEff                               R   N=           5
 -3.60000000E+00 -1.00000000E+00 -1.00000000E+00 -1.00000000E+00 -1.42400000E+01
Nuclear ZNuc                               R   N=           5
  6.00000000E+00  1.00000000E+00  1.00000000E+00  1.00000000E+00  1.70000000E+01
Nuclear QMom                               R   N=           5
  0.00000000E+00  0.00000000E+00  0.00000000E+00  0.00000000E+00 -8.16500000E+00
Nuclear GFac                               R   N=           5
  0.00000000E+00  2.79284600E+00  2.79284600E+00  2.79284600E+00  8.21874000E-01
MicOpt                                     I   N=           5
          -1          -1          -1          -1          -1
Number of residues                         I                0
Number of secondary structures             I                0
Number of contracted shells                I               36
Number of primitive shells                 I               65
Pure/Cartesian d shells                    I                0
Pure/Cartesian f shells                    I                0
Highest angular momentum                   I                3
Largest degree of contraction              I                7
Shell types                                I   N=          36
           0           0           0           0           0           1
           1           1          -2          -2          -3           0
           0           0           1           0           0           0
           1           0           0           0           1           0
           0           0           0           0           1           1
           1           1           1          -2          -2          -3
Number of primitives per shell             I   N=          36
           6           2           1           1           1           4
           1           1           1           1           1           3
           1           1           1           3           1           1
           1           3           1           1           1           7
           3           2           1           1           5           1
           1           1           1           2           1           1
Shell to atom map                          I   N=          36
           1           1           1           1           1           1
           1           1           1           1           1           2
           2           2           2           3           3           3
           3           4           4           4           4           5
           5           5           5           5           5           5
           5           5           5           5           5           5
Primitive exponents                        R   N=          65
  1.35753497E+04  2.03523337E+03  4.63225624E+02  1.31200196E+02  4.28530159E+01
  1.55841858E+01  6.20671385E+00  2.57648965E+00  5.76963394E-01  2.29728314E-01
  9.51644400E-02  3.46972322E+01  7.95826228E+00  2.37808269E+00  8.14332082E-01
  2.88875473E-01  1.00568237E-01  1.09700000E+00  3.18000000E-01  7.61000000E-01
  3.40613410E+01  5.12357460E+00  1.16466260E+00  3.27230410E-01  1.03072410E-01
  8.00000000E-01  3.40613410E+01  5.12357460E+00  1.16466260E+00  3.27230410E-01
  1.03072410E-01  8.00000000E-01  3.40613410E+01  5.12357460E+00  1.16466260E+00
  3.27230410E-01  1.03072410E-01  8.00000000E-01  6.95079909E+04  1.04261569E+04
  2.37323341E+03  6.71564201E+02  2.18419998E+02  7.75722497E+01  2.88888153E+01
  1.27105272E+02  3.93395830E+01  7.67406800E+00  3.87456276E+00  1.83858326E+00
  5.02290575E-01  1.79627234E-01  6.66504233E+02  1.57642417E+02  5.02625210E+01
  1.85360781E+01  7.29405328E+00  2.94332490E+00  1.04049708E+00  3.84564151E-01
  1.30696427E-01  4.61000000E+00  1.01100000E+00  3.39000000E-01  7.06000000E-01
Contraction coefficients                   R   N=          65
  6.06455036E-04  4.69790889E-03  2.43324776E-02  9.73999683E-02  3.01955843E-01
  6.62336091E-01  6.55953085E-01  3.75856333E-01  1.00000000E+00  1.00000000E+00
  1.00000000E+00  1.13272200E-02  7.61696592E-02  3.01922522E-01  7.27850273E-01
  1.00000000E+00  1.00000000E+00  1.00000000E+00  1.00000000E+00  1.00000000E+00
  2.54393072E-02  1.90085949E-01  8.52441130E-01  1.00000000E+00  1.00000000E+00
  1.00000000E+00  2.54393072E-02  1.90085949E-01  8.52441130E-01  1.00000000E+00
  1.00000000E+00  1.00000000E+00  2.54393072E-02  1.90085949E-01  8.52441130E-01
  1.00000000E+00  1.00000000E+00  1.00000000E+00  5.14573896E-04  3.97813448E-03
  2.04561787E-02  8.01481029E-02  2.34547703E-01  4.45433686E-01  3.54668425E-01
  1.12936881E-01  4.83735142E-01 -1.22922974E+00  6.72968216E-01  3.49560514E-01
  1.00000000E+00  1.00000000E+00  3.35025082E-03  2.67639704E-02  1.23626824E-01
  3.58457879E-01  6.16772964E-01  1.00000000E+00  1.00000000E+00  1.00000000E+00
  1.00000000E+00  1.82658350E-01  9.13291752E-01  1.00000000E+00  1.00000000E+00
Coordinates of each shell                  R   N=         108
  0.00000000E+00  0.00000000E+00 -2.14285872E+00  0.00000000E+00  0.00000000E+00
 -2.14285872E+00  0.00000000E+00  0.00000000E+00 -2.14285872E+00  0.00000000E+00
  0.00000000E+00 -2.14285872E+00  0.00000000E+00  0.00000000E+00 -2.14285872E+00
  0.00000000E+00  0.00000000E+00 -2.14285872E+00  0.00000000E+00  0.00000000E+00
 -2.14285872E+00  0.00000000E+00  0.00000000E+00 -2.14285872E+00  0.00000000E+00
  0.00000000E+00 -2.14285872E+00  0.00000000E+00  0.00000000E+00 -2.14285872E+00
  0.00000000E+00  0.00000000E+00 -2.14285872E+00  0.00000000E+00  1.94802607E+00
 -2.78972331E+00  0.00000000E+00  1.94802607E+00 -2.78972331E+00  0.00000000E+00
  1.94802607E+00 -2.78972331E+00  0.00000000E+00  1.94802607E+00 -2.78972331E+00
 -1.68703977E+00 -9.74013977E-01 -2.78972331E+00 -1.68703977E+00 -9.74013977E-01
 -2.78972331E+00 -1.68703977E+00 -9.74013977E-01 -2.78972331E+00 -1.68703977E+00
 -9.74013977E-01 -2.78972331E+00  1.68703977E+00 -9.74013977E-01 -2.78972331E+00
  1.68703977E+00 -9.74013977E-01 -2.78972331E+00  1.68703977E+00 -9.74013977E-01
 -2.78972331E+00  1.68703977E+00 -9.74013977E-01 -2.78972331E+00  0.00000000E+00
  0.00000000E+00  1.24860630E+00  0.00000000E+00  0.00000000E+00  1.24860630E+00
  0.00000000E+00  0.00000000E+00  1.24860630E+00  0.00000000E+00  0.00000000E+00
  1.24860630E+00  0.00000000E+00  0.00000000E+00  1.24860630E+00  0.00000000E+00
  0.00000000E+00  1.24860630E+00  0.00000000E+00  0.00000000E+00  1.24860630E+00
  0.00000000E+00  0.00000000E+00  1.24860630E+00  0.00000000E+00  0.00000000E+00
  1.24860630E+00  0.00000000E+00  0.00000000E+00  1.24860630E+00  0.00000000E+00
  0.00000000E+00  1.24860630E+00  0.00000000E+00  0.00000000E+00  1.24860630E+00
  0.00000000E+00  0.00000000E+00  1.24860630E+00
Num ILSW                                   I              100
ILSW                                       I   N=         100
           0           0           0           0           2           0
           0           0           0           0        4639          -1
           5           0           0           0           0           0
           0           0           1           0           0           0
           1           1           0           0           0           0
           0           0      100000           0          -1           0
           0           0           0           0           0           0
           0           0           0           1           0           0
           0 -2000000000           1           0           0           0
           0           0         121          52           0           0
           0           0          58           0           0           0
           0           0           0           0           0           1
           0           0           0           0           0           0
           0           0           0           0           0           0
           0           0           0           0           0           0
           0           0           0           0           0           0
           0           0           0           0
Num RLSW                                   I               52
RLSW                                       R   N=          52
  1.00000000E+00  1.00000000E+00  1.00000000E+00  1.00000000E+00  1.00000000E+00
  0.00000000E+00  2.00000000E-01  2.22036000E-01  0.00000000E+00  7.77964000E-01
  0.00000000E+00  2.00000000E-01  0.00000000E+00  0.00000000E+00  1.00000000E+00
  0.00000000E+00  0.00000000E+00  1.00000000E+00  0.00000000E+00  0.00000000E+00
  0.00000000E+00  0.00000000E+00  1.00000000E+00  0.00000000E+00  0.00000000E+00
  0.00000000E+00  0.00000000E+00  1.00000000E+00  0.00000000E+00  0.00000000E+00
  0.00000000E+00  0.00000000E+00  1.00000000E+00  0.00000000E+00  0.00000000E+00
  0.00000000E+00  0.00000000E+00  0.00000000E+00  1.00000000E+00  1.00000000E+00
  0.00000000E+00  1.00000000E+00  0.00000000E+00  0.00000000E+00  0.00000000E+00
  0.00000000E+00  0.00000000E+00  0.00000000E+00  0.00000000E+00  0.00000000E+00
  0.00000000E+00  0.00000000E+00
ECP-MxAtEC                                 I           250000
ECP-MaxLECP                                I               10
ECP-MaxAtL                                 I          2250000
ECP-MxTECP                                 I         11250000
ECP-LenNCZ                                 I                0
ECP-KFirst                                 I   N=          50
           0           0           0           0           0           0
           0           0           0           0           0           0
           0           0           0           0           0           0
           0           0           0           0           0           0
           0           0           0           0           0           0
           0           0           0           0           0           0
           0           0           0           0           0           0
           0           0           0           0           0           0
           0           0
ECP-KLast                                  I   N=          50
           0           0           0           0           0           0
           0           0           0           0           0           0
           0           0           0           0           0           0
           0           0           0           0           0           0
           0           0           0           0           0           0
           0           0           0           0           0           0
           0           0           0           0           0           0
           0           0           0           0           0           0
           0           0
ECP-LMax                                   I   N=           5
           0           0           0           0           0
ECP-LPSkip                                 I   N=           5
           1           1           1           1           1
ECP-RNFroz                                 R   N=           5
  0.00000000E+00  0.00000000E+00  0.00000000E+00  0.00000000E+00  0.00000000E+00
ECP-NLP                                    I                0
ECP-CLP1                                   R      0.000000000000000E+00
ECP-CLP2                                   R      0.000000000000000E+00
ECP-ZLP                                    R      0.000000000000000E+00
MxBond                                     I                4
NBond                                      I   N=           5
           4           1           1           1           1
IBond                                      I   N=          20
           2           3           4           5           1           0
           0           0           1           0           0           0
           1           0           0           0           1           0
           0           0
RBond                                      R   N=          20
  1.00000000E+00  1.00000000E+00  1.00000000E+00  1.00000000E+00  1.00000000E+00
  0.00000000E+00  0.00000000E+00  0.00000000E+00  1.00000000E+00  0.00000000E+00
  0.00000000E+00  0.00000000E+00  1.00000000E+00  0.00000000E+00  0.00000000E+00
  0.00000000E+00  1.00000000E+00  0.00000000E+00  0.00000000E+00  0.00000000E+00
Virial Ratio                               R      2.001773026298403E+00
SCF Energy                                 R     -5.001245324158876E+02
CIS Energy                                 R     -4.998508055714255E+02
Total Energy                               R     -4.998508055714255E+02
Post-SCF wavefunction norm                 R      1.000000000000000E+00
RMS Density                                R      8.513042481043089E-09
Job Status                                 I                1
Nuclear derivative order                   I                0
External E-field                           R   N=          35
  0.00000000E+00  0.00000000E+00  0.00000000E+00  0.00000000E+00  0.00000000E+00
  0.00000000E+00  0.00000000E+00  0.00000000E+00  0.00000000E+00  0.00000000E+00
  0.00000000E+00  0.00000000E+00  0.00000000E+00  0.00000000E+00  0.00000000E+00
  0.00000000E+00  0.00000000E+00  0.00000000E+00  0.00000000E+00  0.00000000E+00
  0.00000000E+00  0.00000000E+00  0.00000000E+00  0.00000000E+00  0.00000000E+00
  0.00000000E+00  0.00000000E+00  0.00000000E+00  0.00000000E+00  0.00000000E+00
  0.00000000E+00  0.00000000E+00  0.00000000E+00  0.00000000E+00  0.00000000E+00
IOpCl                                      I                0
IROHF                                      I                0
Alpha Orbital Energies                     R   N=          86
 -1.01682508E+02 -1.03413927E+01 -9.56786787E+00 -7.31453070E+00 -7.30546040E+00
 -7.30546039E+00 -9.48007501E-01 -7.75223483E-01 -5.38529491E-01 -5.38528518E-01
 -4.93815532E-01 -3.80429658E-01 -3.80429539E-01  9.47606586E-02  1.33851613E-01
  1.79211374E-01  1.79211833E-01  2.49333090E-01  2.86652731E-01  2.86652910E-01
  3.61254361E-01  4.33933952E-01  4.33935224E-01  4.61865786E-01  4.84514634E-01
  4.84515493E-01  5.40372622E-01  5.40375081E-01  5.58492606E-01  5.58493110E-01
  5.62086096E-01  7.29157040E-01  8.96177478E-01  8.96177886E-01  1.01790851E+00
  1.01790930E+00  1.02235684E+00  1.12231106E+00  1.51532361E+00  1.55482479E+00
  1.55482563E+00  1.58243705E+00  1.74576487E+00  1.81191392E+00  1.81191568E+00
  1.86601224E+00  1.86601318E+00  1.90860222E+00  1.90860248E+00  1.90898205E+00
  2.01800744E+00  2.01814988E+00  2.01815224E+00  2.15999839E+00  2.18636919E+00
  2.19019824E+00  2.30954424E+00  2.30954554E+00  2.34338988E+00  2.34339354E+00
  2.35631226E+00  2.38398626E+00  2.38398657E+00  2.61744401E+00  2.61744574E+00
  2.84086094E+00  2.86279226E+00  2.86279396E+00  3.08843608E+00  3.08844840E+00
  3.12168894E+00  3.42812839E+00  3.46464112E+00  3.46464457E+00  3.57781860E+00
  3.64203808E+00  3.64204083E+00  4.14792808E+00  4.25055957E+00  4.25056871E+00
  4.47662779E+00  1.08354972E+01  1.08354973E+01  1.12907247E+01  2.21103301E+01
  2.50465698E+01
Alpha MO coefficients                      R   N=        7396
  1.44391956E-05 -4.71416909E-05  3.71151515E-04 -9.14424879E-04  3.16219159E-03
  1.07108048E-16 -1.50409243E-11  9.46485600E-05  1.11162241E-14  2.29978594E-11
 -1.10765717E-04  3.32699423E-15 -8.46654093E-10  4.05581668E-04  3.76012771E-05
 -9.94087782E-16 -5.48780753E-12  3.04057403E-11 -2.10175455E-16 -2.31555118E-04
 -2.37495982E-15  3.01090092E-11 -9.28569918E-11 -5.80051320E-15 -2.02604188E-04
 -3.90010488E-16 -5.10718155E-12 -4.19104204E-12  1.44926759E-15 -7.22981302E-17
 -2.31440643E-05  2.64548507E-05 -9.74064007E-05 -6.12085403E-04 -2.22747513E-16
 -3.68220760E-05 -3.53004998E-05  2.64548927E-05 -9.74065563E-05 -6.12086026E-04
  3.18888107E-05  1.84110830E-05 -3.53004970E-05  2.64548927E-05 -9.74065563E-05
 -6.12086026E-04 -3.18888107E-05  1.84110830E-05 -3.53004970E-05  1.00023903E+00
 -3.23175282E-02 -1.04652177E-02  3.77965159E-03 -2.72315623E-03  6.88966845E-16
  1.00827768E-12 -7.09537817E-05 -5.41817355E-16 -3.27724557E-13  2.49463542E-05
  4.30807511E-16  1.27761350E-11  9.40527898E-05  2.06765710E-16 -4.95106655E-11
 -4.19545046E-04 -1.63560863E-15  1.92391745E-10  8.25119427E-04  9.41192098E-05
 -2.20215475E-16  1.20770049E-11  7.19819272E-13 -2.24161774E-16 -6.29794824E-05
  1.06949814E-15 -6.49323417E-11 -3.18072041E-12  4.23456135E-16 -4.80784407E-05
 -4.96597076E-16  2.01803590E-12 -8.73729462E-12 -5.80443707E-16 -1.02730835E-17
 -2.89622135E-06  4.67301374E-01  6.08753458E-01  3.38365422E-02 -1.67089651E-02
  1.45995134E-02 -2.95480736E-16 -1.11544126E-07  9.39851356E-04  2.84449295E-15
  5.12231035E-08 -4.78435724E-03  1.03551536E-15 -5.74533432E-08 -1.49457136E-03
 -3.26271153E-04 -1.17384469E-16  2.97768759E-09 -1.89836888E-08 -3.58167465E-16
 -2.86351790E-03 -1.24871000E-15  1.41894689E-08  2.88800880E-08 -1.60691045E-15
  5.23807754E-04 -1.25583495E-16  2.68598489E-08 -1.18674276E-08  1.27224073E-16
 -9.20456319E-17 -1.45695417E-03 -6.79464342E-04 -2.10346611E-03 -3.23617400E-03
  2.95255376E-17  1.86752975E-03 -6.45832810E-04 -6.79481795E-04 -2.10349302E-03
 -3.23623254E-03 -1.61735315E-03 -9.33789764E-04 -6.45842739E-04 -6.79481795E-04
 -2.10349302E-03 -3.23623254E-03  1.61735315E-03 -9.33789764E-04 -6.45842739E-04
  2.79469714E-05 -8.13048599E-05 -2.38871246E-04  2.99163049E-04  1.96823027E-03
 -1.03687226E-16  4.63159976E-10  2.45947937E-05  9.42570488E-17 -2.57763122E-09
 -2.15827834E-05 -1.92728019E-16  8.26544221E-09  2.09751573E-04  3.03381750E-16
 -1.41604799E-08 -2.10684680E-03 -1.32230741E-16  7.73511665E-09 -1.28918925E-03
  1.56692265E-05 -4.75762571E-18 -1.88321709E-09  1.05290072E-10 -1.80978592E-17
  1.30320328E-03 -1.87152915E-17  1.29124730E-08 -8.48435703E-10  1.27921668E-16
  2.03814264E-04  3.48390498E-18 -9.12829161E-09  5.92449512E-10  1.67985518E-17
  1.26346127E-17 -8.45524425E-06 -2.37127514E-05 -1.89387928E-04  1.55252312E-03
 -3.88429981E-03  1.54131840E-02  3.43454991E-16 -1.74581557E-10  4.16307512E-04
 -1.22945028E-14  7.13635634E-10 -2.48128310E-04  7.05364181E-15 -4.62882444E-09
  2.17048887E-03  1.10971028E-04  3.21247775E-16  3.01690881E-10  8.35074404E-11
  2.41232192E-16 -8.69749451E-04  2.96663811E-15  4.20242486E-10 -3.09869279E-10
  4.67665567E-15 -7.90708213E-04  3.63546616E-16  1.83290504E-10  4.13350981E-11
 -9.75255057E-16  4.02368853E-17 -8.34024316E-05  1.00228128E-04 -4.52893131E-04
 -2.93351838E-03  2.23592480E-16 -1.57503159E-04 -1.19384482E-04  1.00228446E-04
 -4.52894219E-04 -2.93352162E-03  1.36401637E-04  7.87517988E-05 -1.19384407E-04
  1.00228446E-04 -4.52894219E-04 -2.93352162E-03 -1.36401637E-04  7.87517988E-05
 -1.19384407E-04 -2.92800522E-01 -2.17986747E-01  8.28832179E-01  3.16907090E-02
 -1.48082438E-02 -9.63935100E-16  3.11367211E-09 -3.64530352E-03 -6.68848238E-16
 -1.33196748E-10 -2.40120656E-03  1.15306501E-16  4.42643758E-09  2.96787075E-05
  5.07598229E-18 -1.85503513E-09 -1.88146511E-03 -4.00599957E-16  1.88553832E-09
  4.29648384E-03  1.14446758E-03 -2.32095278E-16 -2.47403007E-09 -4.74592810E-10
  3.75845658E-16 -7.17305159E-04 -1.54124111E-16  8.79430045E-10 -1.12688961E-10
 -5.91493564E-16 -2.51054880E-04  6.98414114E-16 -3.78424350E-11 -2.59827250E-10
  7.40267072E-16 -6.14278443E-18 -1.11781683E-05  3.19786766E-05  3.47021068E-05
  2.71487342E-03 -8.03444741E-03 -3.74109091E-03  3.66538463E-16  1.39335030E-10
  6.94255085E-04 -1.47367215E-14 -2.24597916E-09 -7.38630770E-03 -1.96270004E-15
  1.44027246E-09 -1.26163756E-03 -1.97434203E-04  2.57334565E-16 -6.32640721E-11
 -4.59784672E-11  1.44231279E-16 -3.64350653E-03  4.40974125E-15 -1.16685288E-09
  8.52495548E-10  8.98169322E-15 -5.46826812E-04  1.12277713E-15 -4.96762067E-10
  2.83076233E-10 -2.14755103E-15  4.54082764E-16  5.94923952E-05 -1.29862545E-04
  2.19367565E-04  6.22009365E-04 -3.07372114E-16 -2.18894657E-05  2.80842362E-04
 -1.29862442E-04  2.19365733E-04  6.22011036E-04  1.89567041E-05  1.09445835E-05
  2.80841643E-04 -1.29862442E-04  2.19365733E-04  6.22011036E-04 -1.89567041E-05
  1.09445835E-05  2.80841643E-04 -1.67280897E-03 -1.31568443E-03  5.08227138E-03
 -3.36113843E-03  1.01594017E-02  1.13442455E-13 -1.20670516E-06  7.08006895E-01
  5.62884715E-14 -5.89297237E-07  3.44905131E-01  1.07281842E-14 -1.22653189E-07
  7.57327317E-02 -1.04044241E-15  1.24606583E-08 -1.54681468E-02  1.57303207E-15
 -2.70519790E-09 -5.34013698E-04 -1.61619779E-03  3.12843743E-17  3.09453074E-09
  3.32538544E-10  2.14475097E-16  4.68051773E-03 -5.43745805E-16 -1.94075683E-09
 -8.22954822E-10 -6.15813444E-16 -8.52846696E-04  1.03106147E-16 -2.51889657E-10
  2.15411806E-10  3.87570911E-16 -1.45271213E-16  3.19517828E-06  5.29122305E-11
 -3.16595404E-10  9.18520569E-09 -2.67428047E-08  5.99975486E-09 -3.47028178E-11
 -1.39279389E-04  2.28418634E-09  2.97955151E-10  1.19581342E-03 -1.81650529E-08
 -2.13518613E-10 -8.56987936E-04 -1.50650267E-09 -2.58358197E-10 -1.46766599E-11
 -5.89054895E-05 -5.20929455E-05 -1.29797250E-11 -8.47118024E-09  1.36042120E-10
  5.46023852E-04 -2.78315893E-04 -6.93505209E-11 -1.44809833E-09  3.90928827E-11
  1.56902754E-04 -1.48209973E-05 -3.69103768E-12  9.77683916E-16  8.81780753E-11
  7.81218433E-07 -6.14495042E-04  4.87603552E-04  4.84658216E-12  1.26776921E-04
 -3.09786111E-04 -3.91015933E-07  3.07249059E-04 -2.43804714E-04  4.64747436E-05
  4.62812396E-05  1.54894245E-04 -3.91015596E-07  3.07248793E-04 -2.43804503E-04
 -4.64746938E-05  4.62812164E-05  1.54894111E-04 -1.13247555E-09 -1.08260831E-09
  2.75400685E-09 -2.35248618E-09  1.82613558E-08  1.76556266E-07  7.08615188E-01
  1.20783546E-06  8.60111979E-08  3.45209169E-01  5.86815438E-07  1.80839144E-08
  7.25804691E-02  1.30970813E-07 -2.41958217E-09 -9.71108934E-03 -3.33126052E-08
  7.43275368E-10  2.98317455E-03 -8.47980935E-10 -5.16953410E-09 -2.20030784E-10
 -8.83100842E-04 -1.27744449E-05 -3.18146603E-12  1.26013768E-08  1.69340350E-10
  6.79652585E-04  3.77582813E-05  9.40813078E-12 -6.11469232E-10 -1.00076000E-11
 -4.01675276E-05 -1.96396881E-05 -4.89449483E-12 -2.81605130E-15  1.00867158E-08
  2.15271256E-16 -2.25402778E-16  1.37651201E-15 -6.55329403E-15  2.33766515E-14
 -1.39279267E-04  3.47016018E-11 -8.77896070E-16  1.19581292E-03 -2.97930614E-10
  7.96833943E-15 -8.56984430E-04  2.13525176E-10 -4.83420179E-15  3.42235648E-16
 -5.89056022E-05  1.46756986E-11  1.29793728E-11 -5.20926661E-05  9.97197960E-16
  5.46023582E-04 -1.36049152E-10  6.93368644E-11 -2.78317018E-04 -3.80611867E-16
  1.56902535E-04 -3.90949842E-11  3.69390647E-12 -1.48210104E-05  1.39193197E-10
  2.57521274E-16 -1.94529177E-13  1.53091319E-10 -1.21493615E-10  1.94491573E-05
 -3.15841893E-11  7.71826408E-11 -6.76741260E-07  5.32169705E-04 -4.22276213E-04
  9.99451350E-05  4.64746082E-05  2.68283326E-04  6.76741455E-07 -5.32169858E-04
  4.22276334E-04  9.99451582E-05 -4.64746313E-05 -2.68283403E-04  4.83051137E-16
 -2.46866388E-16 -2.21386823E-15  3.81099061E-15 -6.71674134E-15  7.08615190E-01
 -1.76556265E-07 -4.14014286E-13  3.45209166E-01 -8.60111981E-08 -2.01597737E-13
  7.25804725E-02 -1.80839154E-08 -4.54050348E-14 -9.71109207E-03  2.41958535E-09
  9.37539164E-15  2.98317359E-03 -7.43280055E-10  1.93087184E-16  1.11518446E-15
 -8.83100639E-04  2.20029814E-10  3.18330826E-12 -1.27695009E-05 -3.24160658E-15
  6.79651864E-04 -1.69338898E-10 -9.40766558E-12  3.77557058E-05 -2.56270184E-17
 -4.01663976E-05  1.00083517E-11  4.89273928E-12 -1.96427945E-05 -1.11938827E-08
 -2.24802769E-15 -5.28497114E-02 -1.12117995E-01  1.70927869E-01  1.94531429E-01
  8.47627223E-03  6.86368213E-17 -1.32145419E-07  5.40808850E-02 -5.49470257E-15
  2.38392120E-07  5.11310127E-02  4.35673862E-14  3.46827251E-07  7.47570678E-03
  5.22414740E-03  7.00582983E-16 -2.86891447E-07 -1.65230316E-07  5.84438996E-16
  1.41715353E-02 -1.77554495E-15  1.88239057E-07  5.64838991E-09 -5.52683959E-15
  5.19026014E-03 -8.97759236E-17  4.55948000E-07  8.51048242E-08  6.70812832E-16
  1.17452077E-16 -2.18178405E-03  3.48789855E-02  3.69315824E-02  9.21273212E-03
  5.67100971E-16 -4.94072568E-03  3.29055256E-03  3.48787988E-02  3.69318997E-02
  9.21283869E-03  4.27891414E-03  2.47031960E-03  3.29065381E-03  3.48787988E-02
  3.69318997E-02  9.21283869E-03 -4.27891414E-03  2.47031960E-03  3.29065381E-03
  7.33733575E-02  6.53881794E-02 -4.16829727E-01  5.68067100E-01  3.56651210E-01
 -1.10796556E-16 -5.16787485E-08  3.28385338E-02  7.05301241E-16  2.81611571E-08
  1.57685512E-02 -1.52152263E-15 -9.85031039E-08 -3.64571405E-02  1.78543978E-15
  3.71502284E-07 -7.09055373E-02 -7.07564762E-15 -3.43994102E-07 -9.73968903E-03
  1.84276989E-02 -3.24262252E-16 -1.21167654E-07 -7.17621194E-08  1.67097940E-16
  1.45704504E-02  1.48709242E-15  2.01308080E-07  9.45163897E-08 -9.81927079E-16
 -4.96971780E-03 -1.24677304E-16 -1.15436796E-07 -7.93641004E-09 -1.28655820E-16
  2.01269689E-17 -5.40187998E-05  7.91588225E-02  1.68681848E-01 -2.66818773E-01
 -3.13860732E-01 -3.77835194E-02  3.56350293E-16 -2.12592845E-07  7.70426208E-02
  1.13591346E-14  4.86678197E-07  4.92788518E-02 -7.03723915E-14  1.93384535E-07
  2.61041072E-02  7.31410199E-03 -9.65138505E-16  9.06529796E-07  3.72676758E-07
 -6.14698422E-16  6.13690337E-03  1.73128126E-15 -2.80833694E-07 -6.69426341E-07
  7.69089386E-15 -2.70937035E-03 -8.95444205E-16 -8.22740676E-07  5.83250838E-08
  2.49166019E-16  1.04818396E-17  3.48430379E-03 -8.30826387E-02 -9.67098302E-02
 -1.73779916E-02 -7.89542239E-16  1.24077632E-02 -1.82378691E-03 -8.30817431E-02
 -9.67082461E-02 -1.73779330E-02 -1.07452280E-02 -6.20355263E-03 -1.82380013E-03
 -8.30817431E-02 -9.67082461E-02 -1.73779330E-02  1.07452280E-02 -6.20355263E-03
 -1.82380013E-03  4.84080702E-02  4.35290324E-02 -2.78633896E-01  3.89379924E-01
  2.77306369E-01  3.72451906E-16 -3.21262807E-08 -3.33921947E-02 -7.05272509E-16
  7.51618912E-08 -1.60128352E-02  9.08670551E-16 -2.70108094E-07  3.87695607E-02
 -2.14917732E-15  5.95852096E-07  7.71267267E-02  1.00721742E-14 -3.51465409E-07
  3.42683067E-02 -8.31877953E-03  5.86646346E-16 -2.42162972E-08 -8.20691353E-08
 -3.43524440E-16 -8.64240622E-03 -2.50816210E-15 -1.04275105E-07  1.77046623E-07
  1.26745812E-15  2.52653821E-03  2.59943730E-16  7.02524822E-08 -4.29226397E-08
 -3.10205524E-16 -3.28007763E-17  4.85570220E-05  1.67627519E-07  2.48641751E-07
 -2.08123934E-07 -2.66060576E-06  3.69832340E-06  7.18010660E-11  3.18771751E-01
 -4.02540135E-06  5.50082678E-11  2.44125036E-01 -1.98901531E-06  2.12852322E-11
  9.44803348E-02 -3.86523644E-07  7.39896103E-07 -9.86896947E-13 -4.37724997E-03
 -1.18768473E-02 -2.67501985E-12  4.93444219E-07  1.16927424E-12  5.22489346E-03
 -3.52983079E-03 -8.04510866E-13  3.18063959E-07  4.98729310E-13  2.22153428E-03
 -8.09092915E-04 -1.80232897E-13  3.81893693E-16  4.98686894E-07  1.56042597E-01
  2.23574052E-01  7.15500867E-02  2.38716995E-12 -1.51268534E-02  8.67184936E-03
 -7.80205114E-02 -1.11785416E-01 -3.57760816E-02 -1.11397839E-02  4.16921068E-03
 -4.33647551E-03 -7.80205114E-02 -1.11785416E-01 -3.57760815E-02  1.11397839E-02
  4.16921068E-03 -4.33647551E-03  2.55858922E-07  2.29390027E-07 -1.50754851E-06