Opted at B3LYP/def2-TZVP level                                          
SP        RwB97XD                                                     def2TZVP            
Number of atoms                            I                5
Info1-9                                    I   N=           9
          15          14           0           0           0         111
           1          18       -5802
Full Title                                 C   N=           3
Opted at B3LYP/def2-TZVP level      
Route                                      C   N=           3
# wb97xd/def2TZVP nosymm charge     
Charge                                     I                0
Multiplicity                               I                1
Number of electrons                        I               26
Number of alpha electrons                  I               13
Number of beta electrons                   I               13
Number of basis functions                  I               86
Number of independent functions            I               86
Number of point charges in /Mol/           I                0
Number of translation vectors              I                0
Atomic numbers                             I   N=           5
           6           1           1           1          17
Nuclear charges                            R   N=           5
  6.00000000E+00  1.00000000E+00  1.00000000E+00  1.00000000E+00  1.70000000E+01
Current cartesian coordinates              R   N=          15
  0.00000000E+00  0.00000000E+00 -2.14285872E+00  0.00000000E+00  1.94802607E+00
 -2.78972331E+00 -1.68703977E+00 -9.74013977E-01 -2.78972331E+00  1.68703977E+00
 -9.74013977E-01 -2.78972331E+00  0.00000000E+00  0.00000000E+00  1.24860630E+00
Number of symbols in /Mol/                 I                0
Force Field                                I                0
Atom Types                                 C   N=           5
                                                            
Int Atom Types                             I   N=           5
           0           0           0           0           0
MM charges                                 R   N=           5
  0.00000000E+00  0.00000000E+00  0.00000000E+00  0.00000000E+00  0.00000000E+00
Integer atomic weights                     I   N=           5
          12           1           1           1          35
Real atomic weights                        R   N=           5
  1.20000000E+01  1.00782504E+00  1.00782504E+00  1.00782504E+00  3.49688527E+01
Atom fragment info                         I   N=           5
           0           0           0           0           0
Atom residue num                           I   N=           5
           0           0           0           0           0
Nuclear spins                              I   N=           5
           0           1           1           1           3
Nuclear ZEff                               R   N=           5
 -3.60000000E+00 -1.00000000E+00 -1.00000000E+00 -1.00000000E+00 -1.42400000E+01
Nuclear ZNuc                               R   N=           5
  6.00000000E+00  1.00000000E+00  1.00000000E+00  1.00000000E+00  1.70000000E+01
Nuclear QMom                               R   N=           5
  0.00000000E+00  0.00000000E+00  0.00000000E+00  0.00000000E+00 -8.16500000E+00
Nuclear GFac                               R   N=           5
  0.00000000E+00  2.79284600E+00  2.79284600E+00  2.79284600E+00  8.21874000E-01
MicOpt                                     I   N=           5
          -1          -1          -1          -1          -1
Number of residues                         I                0
Number of secondary structures             I                0
Number of contracted shells                I               36
Number of primitive shells                 I               65
Pure/Cartesian d shells                    I                0
Pure/Cartesian f shells                    I                0
Highest angular momentum                   I                3
Largest degree of contraction              I                7
Shell types                                I   N=          36
           0           0           0           0           0           1
           1           1          -2          -2          -3           0
           0           0           1           0           0           0
           1           0           0           0           1           0
           0           0           0           0           1           1
           1           1           1          -2          -2          -3
Number of primitives per shell             I   N=          36
           6           2           1           1           1           4
           1           1           1           1           1           3
           1           1           1           3           1           1
           1           3           1           1           1           7
           3           2           1           1           5           1
           1           1           1           2           1           1
Shell to atom map                          I   N=          36
           1           1           1           1           1           1
           1           1           1           1           1           2
           2           2           2           3           3           3
           3           4           4           4           4           5
           5           5           5           5           5           5
           5           5           5           5           5           5
Primitive exponents                        R   N=          65
  1.35753497E+04  2.03523337E+03  4.63225624E+02  1.31200196E+02  4.28530159E+01
  1.55841858E+01  6.20671385E+00  2.57648965E+00  5.76963394E-01  2.29728314E-01
  9.51644400E-02  3.46972322E+01  7.95826228E+00  2.37808269E+00  8.14332082E-01
  2.88875473E-01  1.00568237E-01  1.09700000E+00  3.18000000E-01  7.61000000E-01
  3.40613410E+01  5.12357460E+00  1.16466260E+00  3.27230410E-01  1.03072410E-01
  8.00000000E-01  3.40613410E+01  5.12357460E+00  1.16466260E+00  3.27230410E-01
  1.03072410E-01  8.00000000E-01  3.40613410E+01  5.12357460E+00  1.16466260E+00
  3.27230410E-01  1.03072410E-01  8.00000000E-01  6.95079909E+04  1.04261569E+04
  2.37323341E+03  6.71564201E+02  2.18419998E+02  7.75722497E+01  2.88888153E+01
  1.27105272E+02  3.93395830E+01  7.67406800E+00  3.87456276E+00  1.83858326E+00
  5.02290575E-01  1.79627234E-01  6.66504233E+02  1.57642417E+02  5.02625210E+01
  1.85360781E+01  7.29405328E+00  2.94332490E+00  1.04049708E+00  3.84564151E-01
  1.30696427E-01  4.61000000E+00  1.01100000E+00  3.39000000E-01  7.06000000E-01
Contraction coefficients                   R   N=          65
  6.06455036E-04  4.69790889E-03  2.43324776E-02  9.73999683E-02  3.01955843E-01
  6.62336091E-01  6.55953085E-01  3.75856333E-01  1.00000000E+00  1.00000000E+00
  1.00000000E+00  1.13272200E-02  7.61696592E-02  3.01922522E-01  7.27850273E-01
  1.00000000E+00  1.00000000E+00  1.00000000E+00  1.00000000E+00  1.00000000E+00
  2.54393072E-02  1.90085949E-01  8.52441130E-01  1.00000000E+00  1.00000000E+00
  1.00000000E+00  2.54393072E-02  1.90085949E-01  8.52441130E-01  1.00000000E+00
  1.00000000E+00  1.00000000E+00  2.54393072E-02  1.90085949E-01  8.52441130E-01
  1.00000000E+00  1.00000000E+00  1.00000000E+00  5.14573896E-04  3.97813448E-03
  2.04561787E-02  8.01481029E-02  2.34547703E-01  4.45433686E-01  3.54668425E-01
  1.12936881E-01  4.83735142E-01 -1.22922974E+00  6.72968216E-01  3.49560514E-01
  1.00000000E+00  1.00000000E+00  3.35025082E-03  2.67639704E-02  1.23626824E-01
  3.58457879E-01  6.16772964E-01  1.00000000E+00  1.00000000E+00  1.00000000E+00
  1.00000000E+00  1.82658350E-01  9.13291752E-01  1.00000000E+00  1.00000000E+00
Coordinates of each shell                  R   N=         108
  0.00000000E+00  0.00000000E+00 -2.14285872E+00  0.00000000E+00  0.00000000E+00
 -2.14285872E+00  0.00000000E+00  0.00000000E+00 -2.14285872E+00  0.00000000E+00
  0.00000000E+00 -2.14285872E+00  0.00000000E+00  0.00000000E+00 -2.14285872E+00
  0.00000000E+00  0.00000000E+00 -2.14285872E+00  0.00000000E+00  0.00000000E+00
 -2.14285872E+00  0.00000000E+00  0.00000000E+00 -2.14285872E+00  0.00000000E+00
  0.00000000E+00 -2.14285872E+00  0.00000000E+00  0.00000000E+00 -2.14285872E+00
  0.00000000E+00  0.00000000E+00 -2.14285872E+00  0.00000000E+00  1.94802607E+00
 -2.78972331E+00  0.00000000E+00  1.94802607E+00 -2.78972331E+00  0.00000000E+00
  1.94802607E+00 -2.78972331E+00  0.00000000E+00  1.94802607E+00 -2.78972331E+00
 -1.68703977E+00 -9.74013977E-01 -2.78972331E+00 -1.68703977E+00 -9.74013977E-01
 -2.78972331E+00 -1.68703977E+00 -9.74013977E-01 -2.78972331E+00 -1.68703977E+00
 -9.74013977E-01 -2.78972331E+00  1.68703977E+00 -9.74013977E-01 -2.78972331E+00
  1.68703977E+00 -9.74013977E-01 -2.78972331E+00  1.68703977E+00 -9.74013977E-01
 -2.78972331E+00  1.68703977E+00 -9.74013977E-01 -2.78972331E+00  0.00000000E+00
  0.00000000E+00  1.24860630E+00  0.00000000E+00  0.00000000E+00  1.24860630E+00
  0.00000000E+00  0.00000000E+00  1.24860630E+00  0.00000000E+00  0.00000000E+00
  1.24860630E+00  0.00000000E+00  0.00000000E+00  1.24860630E+00  0.00000000E+00
  0.00000000E+00  1.24860630E+00  0.00000000E+00  0.00000000E+00  1.24860630E+00
  0.00000000E+00  0.00000000E+00  1.24860630E+00  0.00000000E+00  0.00000000E+00
  1.24860630E+00  0.00000000E+00  0.00000000E+00  1.24860630E+00  0.00000000E+00
  0.00000000E+00  1.24860630E+00  0.00000000E+00  0.00000000E+00  1.24860630E+00
  0.00000000E+00  0.00000000E+00  1.24860630E+00
Num ILSW                                   I              100
ILSW                                       I   N=         100
           0           0           0           0           2           0
           0           0           0           0        4639          -1
           5           0           0           0           0           0
           0           0           1           0           0           0
           1           1           0           0           0           0
           0           0      100000           0          -1           0
           0           0           0           0           0           0
           0           0           0           1           0           0
           0 -2000000000           1           0           0           0
           0           0         121          52           0           0
           0           1          58           0           0           0
           0           0           0           0           0           1
           0           0           0           0           0           0
           0           0           0           0           0           0
           0           0           0           0           0           0
           0           0           0           0           0           0
           0           0           0           0
Num RLSW                                   I               52
RLSW                                       R   N=          52
  1.00000000E+00  1.00000000E+00  1.00000000E+00  1.00000000E+00  1.00000000E+00
  0.00000000E+00  2.00000000E-01  2.22036000E-01  0.00000000E+00  7.77964000E-01
  0.00000000E+00  2.00000000E-01  0.00000000E+00  0.00000000E+00  1.00000000E+00
  0.00000000E+00  0.00000000E+00  1.00000000E+00  0.00000000E+00  0.00000000E+00
  0.00000000E+00  0.00000000E+00  1.00000000E+00  0.00000000E+00  0.00000000E+00
  0.00000000E+00  0.00000000E+00  1.00000000E+00  0.00000000E+00  0.00000000E+00
  0.00000000E+00  0.00000000E+00  1.00000000E+00  0.00000000E+00  0.00000000E+00
  0.00000000E+00  0.00000000E+00  0.00000000E+00  1.00000000E+00  1.00000000E+00
  0.00000000E+00  1.00000000E+00  0.00000000E+00  0.00000000E+00  0.00000000E+00
  0.00000000E+00  0.00000000E+00  0.00000000E+00  0.00000000E+00  0.00000000E+00
  0.00000000E+00  0.00000000E+00
ECP-MxAtEC                                 I           250000
ECP-MaxLECP                                I               10
ECP-MaxAtL                                 I          2250000
ECP-MxTECP                                 I         11250000
ECP-LenNCZ                                 I                0
ECP-KFirst                                 I   N=          50
           0           0           0           0           0           0
           0           0           0           0           0           0
           0           0           0           0           0           0
           0           0           0           0           0           0
           0           0           0           0           0           0
           0           0           0           0           0           0
           0           0           0           0           0           0
           0           0           0           0           0           0
           0           0
ECP-KLast                                  I   N=          50
           0           0           0           0           0           0
           0           0           0           0           0           0
           0           0           0           0           0           0
           0           0           0           0           0           0
           0           0           0           0           0           0
           0           0           0           0           0           0
           0           0           0           0           0           0
           0           0           0           0           0           0
           0           0
ECP-LMax                                   I   N=           5
           0           0           0           0           0
ECP-LPSkip                                 I   N=           5
           1           1           1           1           1
ECP-RNFroz                                 R   N=           5
  0.00000000E+00  0.00000000E+00  0.00000000E+00  0.00000000E+00  0.00000000E+00
ECP-NLP                                    I                0
ECP-CLP1                                   R      0.000000000000000E+00
ECP-CLP2                                   R      0.000000000000000E+00
ECP-ZLP                                    R      0.000000000000000E+00
MxBond                                     I                4
NBond                                      I   N=           5
           4           1           1           1           1
IBond                                      I   N=          20
           2           3           4           5           1           0
           0           0           1           0           0           0
           1           0           0           0           1           0
           0           0
RBond                                      R   N=          20
  1.00000000E+00  1.00000000E+00  1.00000000E+00  1.00000000E+00  1.00000000E+00
  0.00000000E+00  0.00000000E+00  0.00000000E+00  1.00000000E+00  0.00000000E+00
  0.00000000E+00  0.00000000E+00  1.00000000E+00  0.00000000E+00  0.00000000E+00
  0.00000000E+00  1.00000000E+00  0.00000000E+00  0.00000000E+00  0.00000000E+00
Virial Ratio                               R      2.001772759259372E+00
SCF Energy                                 R     -5.001259695577290E+02
Total Energy                               R     -5.001259695577290E+02
RMS Density                                R      8.519304673172883E-09
Job Status                                 I                1
Nuclear derivative order                   I                0
External E-field                           R   N=          35
  0.00000000E+00  0.00000000E+00  0.00000000E+00  0.00000000E+00  0.00000000E+00
  0.00000000E+00  0.00000000E+00  0.00000000E+00  0.00000000E+00  0.00000000E+00
  0.00000000E+00  0.00000000E+00  0.00000000E+00  0.00000000E+00  0.00000000E+00
  0.00000000E+00  0.00000000E+00  0.00000000E+00  0.00000000E+00  0.00000000E+00
  0.00000000E+00  0.00000000E+00  0.00000000E+00  0.00000000E+00  0.00000000E+00
  0.00000000E+00  0.00000000E+00  0.00000000E+00  0.00000000E+00  0.00000000E+00
  0.00000000E+00  0.00000000E+00  0.00000000E+00  0.00000000E+00  0.00000000E+00
IOpCl                                      I                0
IROHF                                      I                0
Alpha Orbital Energies                     R   N=          86
 -1.01669120E+02 -1.03255410E+01 -9.55455839E+00 -7.30112821E+00 -7.29219602E+00
 -7.29219601E+00 -9.34219978E-01 -7.59508281E-01 -5.22749150E-01 -5.22748152E-01
 -4.79360604E-01 -3.67216147E-01 -3.67216013E-01  1.11292737E-01  1.48913953E-01
  1.95390327E-01  1.95390786E-01  2.68384048E-01  3.01900588E-01  3.01900766E-01
  3.77143162E-01  4.46619930E-01  4.46621247E-01  4.79498378E-01  4.97787339E-01
  4.97788154E-01  5.53910581E-01  5.53913086E-01  5.73676745E-01  5.73677191E-01
  5.78214588E-01  7.42963909E-01  9.11535460E-01  9.11535876E-01  1.03380379E+00
  1.03380460E+00  1.03958015E+00  1.13643164E+00  1.53349166E+00  1.57078187E+00
  1.57078270E+00  1.59898397E+00  1.76140131E+00  1.82700126E+00  1.82700298E+00
  1.87954962E+00  1.87955053E+00  1.92149070E+00  1.92149095E+00  1.92205570E+00
  2.03301962E+00  2.03302186E+00  2.03551596E+00  2.17446477E+00  2.19905617E+00
  2.20304344E+00  2.32240830E+00  2.32240949E+00  2.35877109E+00  2.35877483E+00
  2.37079135E+00  2.39920304E+00  2.39920336E+00  2.63402426E+00  2.63402597E+00
  2.85692652E+00  2.87771685E+00  2.87771861E+00  3.10423248E+00  3.10424473E+00
  3.13719692E+00  3.44392141E+00  3.48059254E+00  3.48059608E+00  3.59481404E+00
  3.65807663E+00  3.65807947E+00  4.16249672E+00  4.26683012E+00  4.26683906E+00
  4.49302949E+00  1.08486370E+01  1.08486371E+01  1.13041857E+01  2.21262525E+01
  2.50598551E+01
Alpha MO coefficients                      R   N=        7396
  1.44384583E-05 -4.71438395E-05  3.71249290E-04 -9.14697566E-04  3.16213200E-03
  1.53000928E-16 -1.50367795E-11  9.46747391E-05  9.88682857E-15  2.33161243E-11
 -1.10991888E-04  2.94831029E-15 -8.46340169E-10  4.05535133E-04  3.75914600E-05
 -9.95884539E-16 -5.62224008E-12  3.05322543E-11 -7.55414027E-16 -2.31668786E-04
 -1.99840261E-15  3.04504895E-11 -9.31209872E-11 -4.96308031E-15 -2.02626679E-04
 -9.02379141E-16 -5.12985654E-12 -4.24141587E-12  1.24098733E-15 -1.03748249E-16
 -2.31413468E-05  2.64527870E-05 -9.74018423E-05 -6.12080019E-04 -1.62657318E-16
 -3.68237026E-05 -3.52908211E-05  2.64528291E-05 -9.74019975E-05 -6.12080642E-04
  3.18902193E-05  1.84118964E-05 -3.52908181E-05  2.64528291E-05 -9.74019976E-05
 -6.12080642E-04 -3.18902193E-05  1.84118964E-05 -3.52908181E-05  1.00023904E+00
 -3.23177090E-02 -1.04652999E-02  3.77958525E-03 -2.72287100E-03  1.55766646E-15
  5.70385890E-12 -7.00426788E-05 -2.14390667E-15 -3.24628958E-12  2.42863443E-05
  1.75517452E-15  1.40538821E-11  9.45599070E-05 -4.90156861E-16 -4.94358389E-11
 -4.19961776E-04 -1.15361637E-15  1.91637456E-10  8.25083852E-04  9.40585985E-05
 -1.33538138E-16  1.19759295E-11  4.79874878E-13 -7.48073084E-17 -6.28316490E-05
  7.51403421E-16 -6.45406563E-11 -2.95958114E-12  2.73181699E-16 -4.81167342E-05
 -2.59121639E-16  1.84775463E-12 -8.78634525E-12 -5.30779439E-16 -9.11494088E-18
 -2.89606870E-06  4.67301075E-01  6.08754823E-01  3.38409153E-02 -1.67284924E-02
  1.45719745E-02 -4.66257375E-16 -1.10338782E-07  9.72128666E-04 -2.45516378E-15
  5.26696243E-08 -4.82314615E-03  6.75919595E-16 -5.70887025E-08 -1.49115859E-03
 -3.25798502E-04  2.55150392E-16  2.90788713E-09 -1.95325561E-08  9.52882263E-16
 -2.87767518E-03 -6.15982939E-16  1.34168120E-08  2.80274955E-08 -7.75725402E-16
  5.20134973E-04 -6.47974220E-17  2.71683565E-08 -1.08686819E-08  5.43952025E-16
 -4.63626522E-16 -1.45673013E-03 -6.79880368E-04 -2.10361282E-03 -3.23004775E-03
  6.31424719E-16  1.86603267E-03 -6.44681214E-04 -6.79897096E-04 -2.10363684E-03
 -3.23010643E-03 -1.61605535E-03 -9.33040552E-04 -6.44691018E-04 -6.79897096E-04
 -2.10363684E-03 -3.23010643E-03  1.61605535E-03 -9.33040552E-04 -6.44691018E-04
  2.80260174E-05 -8.14880707E-05 -2.39419073E-04  2.92791597E-04  2.00033251E-03
 -1.95367964E-16  4.65988550E-10  2.48731361E-05  2.08686176E-16 -2.59150522E-09
 -2.32381144E-05 -4.86129307E-16  8.30390700E-09  2.16657315E-04  1.08025568E-15
 -1.41871462E-08 -2.12760317E-03 -4.27006928E-16  7.66617672E-09 -1.30090965E-03
  1.53533395E-05  9.72878355E-17 -1.90866824E-09  1.18605428E-10  2.96287557E-16
  1.31590125E-03  5.39506063E-17  1.29789130E-08 -8.66806395E-10  4.92119638E-17
  2.01378721E-04  3.51395654E-16 -9.19022270E-09  6.26262685E-10  9.43865036E-17
  2.33930931E-17 -8.43493546E-06 -2.37228312E-05 -1.89357930E-04  1.55457428E-03
 -3.89493047E-03  1.54206615E-02  3.30168480E-16 -1.71767296E-10  4.16168250E-04
 -1.20700968E-14  7.34166100E-10 -2.52074643E-04  5.66830932E-15 -4.61434571E-09
  2.16986882E-03  1.10407665E-04  4.42970262E-16  2.98292374E-10  9.06717137E-11
  3.88670821E-16 -8.69962724E-04  2.73092824E-15  4.30636662E-10 -3.26007218E-10
  4.48623002E-15 -7.90474098E-04 -1.46297233E-16  1.77496230E-10  3.89644977E-11
 -1.48025239E-15 -2.77865496E-16 -8.31040504E-05  1.00344196E-04 -4.52419814E-04
 -2.93534269E-03 -3.01300915E-17 -1.57623597E-04 -1.19057151E-04  1.00344515E-04
 -4.52420869E-04 -2.93534594E-03  1.36505941E-04  7.88120226E-05 -1.19057069E-04
  1.00344515E-04 -4.52420869E-04 -2.93534594E-03 -1.36505941E-04  7.88120226E-05
 -1.19057069E-04 -2.92800794E-01 -2.17984110E-01  8.28832263E-01  3.16944049E-02
 -1.48053159E-02 -1.16057885E-15  3.33141098E-09 -3.60460169E-03 -3.13206160E-16
  2.06326156E-11 -2.37646698E-03 -1.45088898E-16  4.38756079E-09  3.54616229E-05
  2.48514454E-16 -1.78598179E-09 -1.88365927E-03 -3.01849404E-16  1.82709441E-09
  4.29420004E-03  1.13337594E-03 -2.01519405E-16 -2.45745218E-09 -5.06397350E-10
  4.63922326E-16 -7.09724333E-04 -1.69168049E-16  8.86213126E-10 -8.99018826E-11
 -4.69982282E-16 -2.51907959E-04  8.56300128E-16 -4.71224408E-11 -2.61937428E-10
  6.78987045E-16  5.14659421E-18 -1.11766698E-05  3.19659455E-05  3.46998124E-05
  2.71552895E-03 -8.03425849E-03 -3.73947920E-03  2.78269434E-16  1.42677211E-10
  6.94958470E-04 -1.45322109E-14 -2.29661354E-09 -7.38833816E-03 -1.38995085E-15
  1.43733357E-09 -1.26154852E-03 -1.97427899E-04  8.83849895E-16 -5.37553843E-11
 -4.42105581E-11  1.54900337E-16 -3.64566585E-03  3.40267498E-15 -1.18745408E-09
  8.72218888E-10  8.44902220E-15 -5.48200568E-04  9.93448526E-16 -4.97339309E-10
  2.82627702E-10 -1.49103127E-15  2.34233386E-16  5.92747969E-05 -1.29879651E-04
  2.18742654E-04  6.21615443E-04 -2.14643961E-16 -2.18838493E-05  2.80619837E-04
 -1.29879547E-04  2.18740761E-04  6.21617132E-04  1.89518311E-05  1.09417689E-05
  2.80619099E-04 -1.29879547E-04  2.18740761E-04  6.21617132E-04 -1.89518312E-05
  1.09417689E-05  2.80619099E-04 -1.65482351E-03 -1.30144058E-03  5.02894909E-03
 -3.35827486E-03  1.01596075E-02  1.15680444E-13 -1.21691824E-06  7.08010739E-01
  5.75726054E-14 -5.94280969E-07  3.44900645E-01  1.07931013E-14 -1.23684866E-07
  7.57347436E-02 -8.65060947E-16  1.25868555E-08 -1.54720571E-02  1.67381051E-15
 -2.72067714E-09 -5.31959198E-04 -1.60679329E-03  8.67968707E-17  3.11721649E-09
  3.38983228E-10  1.77612011E-16  4.67777853E-03 -9.28433300E-16 -1.96962137E-09
 -8.33066780E-10 -6.84030392E-16 -8.55745043E-04  2.07372781E-16 -2.32780368E-10
  2.13832870E-10  4.56440953E-16 -1.33005945E-16  3.19366316E-06  5.29472501E-11
 -3.15047446E-10  9.19108935E-09 -2.67266482E-08  5.71855057E-09 -3.07114910E-11
 -1.39163361E-04  2.28974263E-09  2.63688830E-10  1.19482660E-03 -1.82553708E-08
 -1.89592204E-10 -8.59135826E-04 -1.55582025E-09 -2.59878288E-10 -1.29606094E-11
 -5.87284050E-05 -5.21715824E-05 -1.15127229E-11 -8.52980330E-09  1.20383126E-10
  5.45498652E-04 -2.77503650E-04 -6.12475917E-11 -1.45179109E-09  3.46960046E-11
  1.57216986E-04 -1.48794203E-05 -3.28271271E-12  5.66684785E-16  8.46797570E-11
  8.76600675E-07 -6.13496876E-04  4.88970212E-04  4.28604993E-12  1.26648337E-04
 -3.09464128E-04 -4.38715249E-07  3.06749957E-04 -2.44487948E-04  4.64336162E-05
  4.62238731E-05  1.54733250E-04 -4.38714914E-07  3.06749722E-04 -2.44487761E-04
 -4.64335722E-05  4.62238526E-05  1.54733131E-04 -1.03701851E-09 -9.98036053E-10
  2.49347882E-09 -2.49131784E-09  1.85316416E-08  1.56381074E-07  7.08608425E-01
  1.21803801E-06  7.61843425E-08  3.45213557E-01  5.91778316E-07  1.60187913E-08
  7.25858322E-02  1.32091585E-07 -2.14321828E-09 -9.71154908E-03 -3.35490294E-08
  6.58696074E-10  2.98475354E-03 -8.57305795E-10 -5.17974766E-09 -1.93048945E-10
 -8.74760904E-04 -1.27370579E-05 -2.80979980E-12  1.26281715E-08  1.49219832E-10
  6.76154500E-04  3.77164365E-05  8.32342193E-12 -6.20423497E-10 -9.23098328E-12
 -4.18294949E-05 -1.96041236E-05 -4.32782217E-12 -2.32986427E-15  1.00803188E-08
  1.64642289E-16 -3.55584666E-16 -1.94210452E-16  1.84146924E-15  2.00876912E-14
 -1.39163238E-04  3.07106902E-11 -1.64260645E-15  1.19482612E-03 -2.63667300E-10
  9.08166702E-15 -8.59132358E-04  1.89601559E-10 -9.33766845E-16  2.60936850E-16
 -5.87285146E-05  1.29595523E-11  1.15138526E-11 -5.21713011E-05  2.39371406E-15
  5.45498361E-04 -1.20388084E-10  6.12322728E-11 -2.77504782E-04 -2.52485234E-16
  1.57216765E-04 -3.46967109E-11  3.28564561E-12 -1.48794330E-05  1.38978277E-10
 -5.34818029E-16 -1.92599876E-13  1.35372059E-10 -1.07911080E-10  1.94155359E-05
 -2.79452515E-11  6.82917479E-11 -7.59349512E-07  5.31305291E-04 -4.23459760E-04
  9.98402943E-05  4.64334897E-05  2.68004486E-04  7.59349707E-07 -5.31305426E-04
  4.23459868E-04  9.98403148E-05 -4.64335101E-05 -2.68004554E-04  3.90764302E-16
 -3.52824956E-16 -1.81775827E-15  4.34820287E-15 -1.18721110E-14  7.08608426E-01
 -1.56381074E-07 -3.84960022E-13  3.45213554E-01 -7.61843421E-08 -1.87671406E-13
  7.25858356E-02 -1.60187915E-08 -3.95579933E-14 -9.71155191E-03  2.14321925E-09
  8.72775678E-15  2.98475264E-03 -6.58699998E-10  3.31144187E-15  1.50309733E-15
 -8.74760688E-04  1.93049306E-10  2.81083694E-12 -1.27320764E-05 -4.77546829E-15
  6.76153752E-04 -1.49217936E-10 -8.32258946E-12  3.77138882E-05  9.16196282E-16
 -4.18283507E-05  9.23048085E-12  4.32595509E-12 -1.96072273E-05 -1.12046413E-08
 -1.65527309E-15 -5.22380691E-02 -1.10819105E-01  1.68928161E-01  1.92063215E-01
  7.43437913E-03 -1.09815347E-15 -1.37511922E-07  5.45416555E-02 -1.14225485E-14
  2.69417799E-07  5.14515841E-02 -8.97990812E-15  3.44201907E-07  8.47461817E-03
  5.29816634E-03  2.03358806E-16 -2.76825657E-07 -1.67387128E-07  3.82636502E-16
  1.40196643E-02  2.89867327E-15  1.77614022E-07 -8.20253663E-09  5.58711637E-15
  5.17570635E-03  9.68116391E-16  4.51128609E-07  9.54066919E-08 -1.35548947E-15
  2.56822248E-16 -2.15888596E-03  3.42467566E-02  3.62261121E-02  9.44133895E-03
  9.57576849E-17 -4.83668387E-03  3.28604438E-03  3.42465801E-02  3.62264696E-02
  9.44143784E-03  4.18882220E-03  2.41830401E-03  3.28614808E-03  3.42465801E-02
  3.62264696E-02  9.44143784E-03 -4.18882220E-03  2.41830401E-03  3.28614808E-03
  7.37235760E-02  6.57024535E-02 -4.18830750E-01  5.70696612E-01  3.58748828E-01
 -2.82726046E-16 -5.20406542E-08  3.26309669E-02  1.92021684E-16  2.73669204E-08
  1.56651153E-02 -4.55060999E-17 -9.59418360E-08 -3.62145420E-02  3.16433578E-16
  3.67929235E-07 -7.05839466E-02  9.88951599E-16 -3.36229993E-07 -9.17783513E-03
  1.83287014E-02  2.75146244E-16 -1.20936349E-07 -7.21592132E-08  6.15761801E-16
  1.44913636E-02  1.27915493E-15  1.98768862E-07  9.45004107E-08  1.48066850E-16
 -4.96349170E-03 -6.43709009E-16 -1.14755175E-07 -7.89688080E-09  3.03341235E-17
  3.11300263E-17 -5.30591759E-05  7.96266529E-02  1.69680193E-01 -2.68290561E-01
 -3.17376222E-01 -2.96765540E-02  1.97853128E-15 -1.85621429E-07  7.50926740E-02
 -9.50098332E-15  4.19769232E-07  4.76367347E-02  3.91386132E-14  1.87038213E-07
  2.27370623E-02  7.18583993E-03  6.46977720E-16  9.02489977E-07  3.90928310E-07
  1.16510898E-15  6.81097621E-03  1.95554764E-15 -2.60994396E-07 -6.41422946E-07
  5.10382362E-16 -2.77602244E-03  4.18672155E-16 -8.34960787E-07  2.92322249E-08
 -3.90250151E-16 -2.91591322E-16  3.53212677E-03 -8.30840549E-02 -9.68588356E-02
 -1.95969251E-02 -5.70024962E-16  1.23627613E-02 -1.90781714E-03 -8.30831724E-02
 -9.68573525E-02 -1.95968484E-02 -1.07062852E-02 -6.18105973E-03 -1.90783798E-03
 -8.30831724E-02 -9.68573525E-02 -1.95968484E-02  1.07062852E-02 -6.18105973E-03
 -1.90783798E-03  4.79483761E-02  4.31363962E-02 -2.76023991E-01  3.85605045E-01
  2.76077772E-01  1.19146470E-16 -3.17244301E-08 -3.44602048E-02  6.25332243E-16
  7.49214760E-08 -1.65080733E-02 -1.22967907E-15 -2.69168038E-07  3.99520961E-02
  3.76902758E-17  5.91073286E-07  7.97963438E-02 -5.00775699E-15 -3.41586130E-07
  3.58755684E-02 -8.65298605E-03 -4.47883715E-16 -2.15959539E-08 -8.21201806E-08
 -4.99682550E-16 -9.22601765E-03 -9.58326432E-16 -1.10796404E-07  1.76400403E-07
 -9.47961415E-16  2.65981785E-03  3.58837412E-18  7.26889830E-08 -4.30883760E-08
 -3.79056117E-17  2.22059047E-17  4.87846128E-05  1.58424475E-07  2.31533558E-07
 -1.65800597E-07 -2.69034062E-06  3.69080330E-06 -1.38659745E-10  3.18149846E-01
 -4.06662663E-06 -1.06014599E-10  2.43191163E-01 -2.04466492E-06 -4.14623100E-11
  9.52076703E-02 -3.59040529E-07  7.51936090E-07  1.89161321E-12 -4.33840637E-03
 -1.17951874E-02  5.14222146E-12  4.65778019E-07 -2.87555265E-12  6.60900493E-03
 -3.49358999E-03  1.52932217E-12  2.96311193E-07 -9.70124406E-13  2.22888085E-03
 -8.42811207E-04  3.65442524E-13  6.80816142E-16  5.24942612E-07  1.55455813E-01
  2.22844335E-01  6.95681181E-02 -4.63366551E-12 -1.50884046E-02  8.91234540E-03
 -7.77270935E-02 -1.11420483E-01 -3.47850803E-02 -1.11364887E-02  4.20197984E-03
 -4.45672259E-03 -7.77270936E-02 -1.11420483E-01 -3.47850803E-02  1.11364887E-02
  4.20197983E-03 -4.45672260E-03  2.52923124E-07  2.26479183E-07 -1.49064720E-06
  2.43216590E-06  7.81000653E-07  2.85412236E-11 -6.54852653E-02 -1.64691958E-06
  1.30474008E-11 -2.99356207E-02 -6.98842751E-07 -3.31462426E-11  7.60515074E-02