[Molden Format]
[Title]
 Molden file created by orca_2mkl for BaseName=HNO2_FOD

[Atoms] AU
N    1   7          0.0000000000         0.9836496959         0.0000000000 
O    2   8         -2.1018327746         0.3369438389         0.0000000000 
O    3   8          1.6846984073        -1.1528349869         0.0000000000 
H    4   1          3.3370673799        -0.3584205764         0.0000000000 
[GTO]
  1 0
s   6 1.0 
    19730.8006470000         0.6956041550
     2957.8958745000         1.2986092428
      673.2213359500         2.2190879611
      190.6824949400         3.4636604978
       62.2954419000         4.6967554569
       22.6541611800         4.9522511799
s   2 1.0 
        8.9791477400         2.3880678004
        3.6863002400         0.7337878737
s   1 1.0 
        0.8466007700         0.6290267093
s   1 1.0 
        0.3364713400         0.3148626531
s   1 1.0 
        0.1364765400         0.1600308069
p   4 1.0 
       49.2003805100         2.1264807579
       11.3467905400         2.3279367506
        3.4273972400         2.0485729258
        1.1785525100         1.2607319796
p   1 1.0 
        0.4164220500         0.4768230432
p   1 1.0 
        0.1426082600         0.1249168255
d   1 1.0 
        1.0000000000         2.8508218814

  2 0
s   6 1.0 
    27032.3826310000         0.8598462750
     4052.3871392000         1.6055341603
      922.3272271000         2.7458773495
      261.2407098900         4.2987675899
       85.3546413500         5.8797662664
       31.0350352400         6.3163983321
s   2 1.0 
       12.2608607300         2.9812147749
        4.9987076000         0.9419559517
s   1 1.0 
        1.1703108200         0.8019291632
s   1 1.0 
        0.4647474100         0.4011648063
s   1 1.0 
        0.1850453600         0.2010799377
p   4 1.0 
       63.2749548000         3.0572015752
       14.6270493800         3.3844842942
        4.4501223500         2.9474262120
        1.5275799600         1.7118271347
p   1 1.0 
        0.5293511800         0.6436057935
p   1 1.0 
        0.1747842100         0.1610897223
d   1 1.0 
        1.2000000000         3.9222679946

  3 0
s   6 1.0 
    27032.3826310000         0.8598462750
     4052.3871392000         1.6055341603
      922.3272271000         2.7458773495
      261.2407098900         4.2987675899
       85.3546413500         5.8797662664
       31.0350352400         6.3163983321
s   2 1.0 
       12.2608607300         2.9812147749
        4.9987076000         0.9419559517
s   1 1.0 
        1.1703108200         0.8019291632
s   1 1.0 
        0.4647474100         0.4011648063
s   1 1.0 
        0.1850453600         0.2010799377
p   4 1.0 
       63.2749548000         3.0572015752
       14.6270493800         3.3844842942
        4.4501223500         2.9474262120
        1.5275799600         1.7118271347
p   1 1.0 
        0.5293511800         0.6436057935
p   1 1.0 
        0.1747842100         0.1610897223
d   1 1.0 
        1.2000000000         3.9222679946

  4 0
s   3 1.0 
       34.0613410000         0.2556300129
        5.1235746000         0.4613599287
        1.1646626000         0.6811215012
s   1 1.0 
        0.3272304100         0.3083545312
s   1 1.0 
        0.1030724100         0.1296483265
p   1 1.0 
        0.8000000000         1.0784563492

[5D]
[7F]
[9G]
[MO]
 Sym=     1a
 Ene= -1.92215528947287E+01
 Spin= Alpha
 Occup= 2.000000
  1      -0.000003878262
  2      -0.000037486320
  3       0.000328392035
  4      -0.002728432441
  5       0.012066872179
  6       0.000251479653
  7      -0.000000417852
  8       0.000000000003
  9       0.001833326417
 10       0.000873693688
 11       0.000000000031
 12      -0.005352347691
 13      -0.002287754302
 14      -0.000000000015
 15       0.000197031804
 16      -0.000000000005
 17      -0.000000000017
 18      -0.000175535465
 19      -0.000117932290
 20      -0.435038005963
 21      -0.639710143382
 22      -0.034728267439
 23       0.024400206106
 24      -0.020258280984
 25      -0.002052637604
 26      -0.000522903456
 27       0.000000000007
 28       0.003149520739
 29       0.000832753896
 30       0.000000000005
 31      -0.005433298883
 32      -0.001441738507
 33       0.000000000016
 34      -0.000144011569
 35       0.000000000001
 36      -0.000000000004
 37       0.000219612917
 38       0.000122945020
 39       0.000021408892
 40       0.000074263320
 41      -0.000303394305
 42       0.000663462616
 43      -0.001856996800
 44       0.000076043068
 45       0.000003156411
 46      -0.000000000059
 47      -0.000518833086
 48      -0.000012168110
 49      -0.000000000092
 50      -0.000140867826
 51      -0.000265910661
 52       0.000000000022
 53      -0.000037436034
 54       0.000000000070
 55       0.000000000003
 56       0.000087232125
 57      -0.000182728091
 58      -0.000053140503
 59       0.000913114836
 60       0.000369137774
 61      -0.000209960910
 62      -0.000023329108
 63       0.000000000003
 Sym=     1a
 Ene= -1.91995951015839E+01
 Spin= Alpha
 Occup= 2.000000
  1       0.000001563196
  2       0.000005919659
  3      -0.000803634785
  4       0.002389681755
  5      -0.006355940184
  6      -0.000016381309
  7       0.000058738383
  8      -0.000000000076
  9       0.000448076984
 10      -0.001137796044
 11      -0.000000000149
 12      -0.001518810122
 13       0.002988429797
 14       0.000000000026
 15      -0.000299435578
 16      -0.000000000017
 17      -0.000000000003
 18      -0.000040507891
 19      -0.000385081102
 20       0.000030779267
 21       0.000009222415
 22       0.000292731685
 23      -0.000731258688
 24       0.001291886756
 25       0.000062267465
 26      -0.000030479539
 27      -0.000000000029
 28      -0.000390592052
 29       0.000164286851
 30      -0.000000000009
 31       0.000470938276
 32      -0.000433893064
 33      -0.000000000022
 34       0.000095674011
 35      -0.000000000000
 36       0.000000000011
 37      -0.000057319053
 38       0.000071124220
 39       0.435062776233
 40       0.639757034497
 41       0.034163676390
 42      -0.022189722131
 43       0.014277853264
 44       0.000433786928
 45       0.001608658525
 46      -0.000000000006
 47      -0.000243475669
 48      -0.002167539145
 49      -0.000000000004
 50      -0.000609441043
 51       0.003107065114
 52       0.000000000003
 53       0.000195416369
 54      -0.000000000003
 55       0.000000000005
 56      -0.000062696323
 57       0.000055042910
 58       0.000635600783
 59      -0.000222048668
 60      -0.001553423606
 61      -0.000445165071
 62      -0.000160970718
 63      -0.000000000003
 Sym=     1a
 Ene= -1.45069532566188E+01
 Spin= Alpha
 Occup= 2.000000
  1      -0.448298490637
  2      -0.627392303551
  3      -0.032906323465
  4       0.018753961829
  5      -0.005858717764
  6       0.001359626396
  7       0.002476567564
  8       0.000000000024
  9       0.000485463301
 10      -0.002000693308
 11       0.000000000001
 12      -0.001447599140
 13       0.001364612717
 14       0.000000000002
 15       0.000237744887
 16       0.000000000005
 17      -0.000000000001
 18      -0.000555591978
 19      -0.000506543789
 20       0.000058167218
 21       0.000094822299
 22      -0.000872210070
 23       0.001407687192
 24      -0.002135403797
 25      -0.000166585272
 26      -0.000111470486
 27      -0.000000000006
 28       0.000940452557
 29       0.000581437102
 30      -0.000000000004
 31      -0.001700468592
 32      -0.000817305788
 33      -0.000000000008
 34      -0.000465031738
 35      -0.000000000003
 36       0.000000000007
 37       0.000643180330
 38       0.000572532649
 39       0.000010808003
 40       0.000005756614
 41       0.000358472830
 42      -0.001422550561
 43       0.001295971723
 44      -0.000026401203
 45      -0.000065424834
 46       0.000000000209
 47       0.000882635543
 48      -0.000675866646
 49       0.000000000035
 50      -0.001014324340
 51       0.000112844040
 52       0.000000000050
 53       0.000099591787
 54      -0.000000000005
 55       0.000000000020
 56      -0.000009295817
 57       0.000137653745
 58       0.000093923591
 59       0.000088017284
 60       0.001090096758
 61       0.000020116134
 62       0.000079069404
 63       0.000000000029
 Sym=     1a
 Ene= -1.24810774729213E+00
 Spin= Alpha
 Occup= 2.000000
  1       0.066809120113
  2       0.150315363226
  3      -0.241873056095
  4      -0.224193324436
  5      -0.045092779957
  6       0.119689616994
  7       0.072798584345
  8      -0.000000000327
  9       0.058081016808
 10       0.049417013521
 11      -0.000000000336
 12       0.002743214018
 13       0.004958018138
 14      -0.000000000204
 15       0.014165980562
 16       0.000000000052
 17       0.000000000057
 18      -0.013374274238
 19      -0.009600551939
 20       0.073915341758
 21       0.173520894096
 22      -0.253601067423
 23      -0.320169491644
 24      -0.050353977932
 25      -0.134837222202
 26      -0.034546833362
 27      -0.000000000561
 28      -0.093861245585
 29      -0.023246135055
 30      -0.000000000538
 31       0.006258897540
 32       0.001952439181
 33      -0.000000000118
 34       0.010034124634
 35      -0.000000000097
 36       0.000000000399
 37      -0.017963197209
 38      -0.009844800403
 39       0.027323177452
 40       0.063819025140
 41      -0.088680231127
 42      -0.128783169307
 43      -0.014510701629
 44       0.018493070852
 45      -0.033034102346
 46       0.000000000872
 47       0.018792374789
 48      -0.029497036365
 49       0.000000000329
 50      -0.001293119949
 51       0.005101469076
 52       0.000000000352
 53       0.005110335980
 54       0.000000000295
 55      -0.000000000147
 56      -0.000357196253
 57       0.005606788097
 58      -0.018039390977
 59      -0.016639834600
 60       0.000736160882
 61       0.005082999448
 62       0.001351778497
 63       0.000000000168
 Sym=     1a
 Ene= -1.06504552470280E+00
 Spin= Alpha
 Occup= 2.000000
  1       0.005235427619
  2       0.011673991105
  3      -0.012900356826
  4      -0.043050505855
  5       0.000408335375
  6      -0.131686320054
  7       0.042319094539
  8      -0.000000000909
  9      -0.085910677413
 10       0.038149730405
 11      -0.000000001135
 12      -0.004866028477
 13      -0.001929722887
 14       0.000000000048
 15       0.001731921332
 16       0.000000000068
 17       0.000000000072
 18       0.012469828468
 19       0.018760463494
 20      -0.037785671396
 21      -0.089086133535
 22       0.133660672716
 23       0.170167346925
 24       0.049296241964
 25       0.043294067185
 26       0.027763615415
 27      -0.000000000880
 28       0.030230173850
 29       0.018763670300
 30      -0.000000000651
 31      -0.000098736128
 32       0.001781382529
 33      -0.000000000298
 34      -0.002331726365
 35       0.000000000252
 36       0.000000000830
 37       0.003974994560
 38       0.006124478617
 39       0.090103213601
 40       0.211989583073
 41      -0.309680620642
 42      -0.418336291071
 43      -0.134881104383
 44      -0.029447730850
 45      -0.074824234694
 46      -0.000000001074
 47      -0.017137911492
 48      -0.067564897675
 49      -0.000000000887
 50      -0.000500413993
 51      -0.004380550736
 52      -0.000000000266
 53       0.010018821565
 54      -0.000000000068
 55      -0.000000000022
 56      -0.000394611881
 57       0.001035823062
 58      -0.089239221294
 59      -0.073339938114
 60      -0.006049538593
 61       0.017902052096
 62       0.006452076380
 63      -0.000000000127
 Sym=     1a
 Ene= -6.95106533511903E-01
 Spin= Alpha
 Occup= 2.000000
  1       0.067376427185
  2       0.153631035507
  3      -0.248384523862
  4      -0.356208650893
  5      -0.112250097049
  6      -0.093285306850
  7       0.052916848720
  8       0.000000000487
  9      -0.064129603425
 10       0.056847660406
 11       0.000000000687
 12      -0.026132730454
 13      -0.000347318184
 14       0.000000000056
 15       0.001569735875
 16      -0.000000000332
 17      -0.000000000002
 18       0.008714942275
 19       0.007632414445
 20      -0.055700198785
 21      -0.132261819853
 22       0.201883789517
 23       0.291508133388
 24       0.183721526987
 25      -0.131384619684
 26      -0.007945467136
 27       0.000000002517
 28      -0.084638888681
 29      -0.000874488991
 30       0.000000002230
 31      -0.031100602910
 32      -0.001890109462
 33       0.000000001054
 34       0.005864534980
 35      -0.000000001210
 36       0.000000001002
 37      -0.008151132424
 38      -0.000269218565
 39      -0.028303674097
 40      -0.067301937947
 41       0.107310645151
 42       0.126079881615
 43       0.091596714482
 44       0.196404881823
 45      -0.090559072633
 46      -0.000000003402
 47       0.150813010750
 48      -0.073186118882
 49      -0.000000003927
 50       0.041709857027
 51      -0.022969307811
 52      -0.000000002035
 53       0.002180509655
 54       0.000000000114
 55      -0.000000000280
 56       0.011177212031
 57       0.017028787710
 58       0.089088221718
 59       0.102818188307
 60       0.022114351075
 61      -0.010545670210
 62      -0.013669612846
 63      -0.000000000561
 Sym=     1a
 Ene= -5.78940949118570E-01
 Spin= Alpha
 Occup= 1.999997
  1      -0.030733961532
  2      -0.070620604215
  3       0.123581450545
  4       0.140276638222
  5       0.064902531251
  6      -0.127199927835
  7       0.195757505882
  8       0.000000002698
  9      -0.094614544010
 10       0.169116546498
 11       0.000000002414
 12      -0.006926522578
 13       0.048705766389
 14       0.000000000556
 15       0.005012321100
 16      -0.000000000304
 17      -0.000000000286
 18       0.029558812799
 19      -0.001583012876
 20       0.028565048271
 21       0.067936520192
 22      -0.102874232189
 23      -0.149334654767
 24      -0.134327513781
 25       0.128924996364
 26       0.224076492235
 27       0.000000003276
 28       0.085085417042
 29       0.176569067256
 30       0.000000002847
 31       0.033141679643
 32       0.075704937628
 33       0.000000001081
 34      -0.005746148806
 35      -0.000000000682
 36       0.000000000166
 37      -0.000469762516
 38       0.021623681756
 39       0.008020358008
 40       0.019080844439
 41      -0.026966279318
 42      -0.052939473192
 43      -0.038221679159
 44       0.246170342010
 45       0.003413528570
 46       0.000000001799
 47       0.193949474980
 48      -0.001247185267
 49       0.000000003496
 50       0.083694612730
 51       0.008204967391
 52       0.000000001672
 53      -0.001066209756
 54      -0.000000000489
 55       0.000000000404
 56       0.002709184028
 57       0.016151642958
 58       0.097370647787
 59       0.124001805858
 60       0.029210975980
 61      -0.010700172634
 62      -0.007038418722
 63       0.000000000330
 Sym=     1a
 Ene= -5.19471392739860E-01
 Spin= Alpha
 Occup= 1.999978
  1      -0.000000037011
  2      -0.000000083548
  3       0.000000125923
  4       0.000000200361
  5       0.000000181174
  6       0.000000416431
  7       0.000000215213
  8      -0.305835280486
  9       0.000000314663
 10       0.000000166490
 11      -0.265597657465
 12       0.000000125735
 13       0.000000073484
 14      -0.106006739231
 15       0.000000013652
 16       0.024362203292
 17       0.023374885733
 18       0.000000007814
 19      -0.000000041064
 20      -0.000000042749
 21      -0.000000102487
 22       0.000000162310
 23       0.000000210543
 24       0.000000295830
 25      -0.000000474877
 26       0.000000004477
 27      -0.309205512033
 28      -0.000000343174
 29       0.000000016515
 30      -0.257768978030
 31      -0.000000156563
 32       0.000000027953
 33      -0.120270867187
 34       0.000000012858
 35      -0.028622621807
 36      -0.007414377285
 37      -0.000000036041
 38      -0.000000008052
 39       0.000000041498
 40       0.000000100107
 41      -0.000000159925
 42      -0.000000207430
 43      -0.000000207582
 44       0.000000074588
 45       0.000000348154
 46      -0.152041953570
 47       0.000000066569
 48       0.000000281560
 49      -0.127138545387
 50       0.000000022676
 51       0.000000140604
 52      -0.072167449334
 53      -0.000000010299
 54       0.004114276893
 55      -0.011292406419
 56      -0.000000024943
 57       0.000000005560
 58       0.000000047783
 59       0.000000091582
 60       0.000000012209
 61      -0.000000013083
 62       0.000000019849
 63      -0.008119935864
 Sym=     1a
 Ene= -5.18912167003350E-01
 Spin= Alpha
 Occup= 1.999978
  1       0.022063625483
  2       0.050047899005
  3      -0.078752909939
  4      -0.106718374011
  5      -0.118472203145
  6      -0.251930813055
  7      -0.128114520483
  8      -0.000000505965
  9      -0.200740103381
 10      -0.102255100407
 11      -0.000000439044
 12      -0.066398918064
 13      -0.042702352369
 14      -0.000000175138
 15      -0.010089661753
 16       0.000000040635
 17       0.000000038606
 18      -0.001857980433
 19       0.026787331884
 20       0.025883551272
 21       0.061318428707
 22      -0.089429194275
 23      -0.149890015237
 24      -0.163206337924
 25       0.288530087221
 26      -0.000874389460
 27      -0.000000514548
 28       0.199280562053
 29      -0.011209074214
 30      -0.000000429024
 31       0.098664666219
 32      -0.014496887531
 33      -0.000000200764
 34      -0.009724556208
 35      -0.000000047949
 36      -0.000000010850
 37       0.014945623901
 38       0.001359661604
 39      -0.025494892682
 40      -0.060754418744
 41       0.095720963047
 42       0.129077700523
 43       0.121872631469
 44      -0.043437346964
 45      -0.211028300143
 46      -0.000000244543
 47      -0.038464088409
 48      -0.170026993342
 49      -0.000000206024
 50      -0.013813745961
 51      -0.088342520173
 52      -0.000000116270
 53       0.006092245960
 54       0.000000007433
 55      -0.000000018698
 56       0.014249957836
 57      -0.003175832455
 58      -0.032601364031
 59      -0.049951040200
 60      -0.009217244729
 61       0.007864789751
 62      -0.012421456157
 63      -0.000000012973
 Sym=     1a
 Ene= -4.31416629957576E-01
 Spin= Alpha
 Occup= 1.999525
  1       0.009286680861
  2       0.021236344892
  3      -0.033148344033
  4      -0.039682366533
  5      -0.138884325541
  6      -0.039679924035
  7      -0.190400282156
  8      -0.000000003152
  9      -0.011040834886
 10      -0.154074362801
 11      -0.000000002644
 12       0.037333287786
 13      -0.056125405876
 14      -0.000000001957
 15      -0.006464519206
 16       0.000000000125
 17       0.000000000046
 18      -0.000690847606
 19       0.023240706578
 20       0.000005139005
 21      -0.000142247313
 22       0.001781257226
 23       0.006161104088
 24       0.030105208718
 25       0.174641218928
 26      -0.225895467069
 27      -0.000000000493
 28       0.141314355777
 29      -0.191483374293
 30      -0.000000000347
 31       0.083756515151
 32      -0.091584133231
 33      -0.000000000348
 34      -0.002862594719
 35      -0.000000000648
 36      -0.000000000470
 37       0.016648200808
 38      -0.012611503318
 39       0.030966524912
 40       0.073954803174
 41      -0.114752520369
 42      -0.171364301728
 43      -0.207559306621
 44       0.196205416782
 45       0.239471618886
 46       0.000000002707
 47       0.152446989396
 48       0.181403025738
 49       0.000000000545
 50       0.060326035237
 51       0.106212434861
 52       0.000000001469
 53      -0.008657945940
 54       0.000000000728
 55      -0.000000000235
 56       0.000199334318
 57       0.010403558261
 58       0.110499284287
 59       0.189049995923
 60       0.053263104177
 61      -0.016462766472
 62       0.000297485224
 63       0.000000000205
 Sym=     1a
 Ene= -3.60575214238532E-01
 Spin= Alpha
 Occup= 1.994313
  1      -0.000000000781
  2      -0.000000000747
  3      -0.000000012815
  4       0.000000055569
  5      -0.000000060823
  6      -0.000000000187
  7       0.000000001497
  8       0.020761562302
  9      -0.000000039000
 10      -0.000000010997
 11       0.012024203191
 12       0.000000037576
 13       0.000000014341
 14      -0.007573602128
 15      -0.000000007179
 16      -0.029268805273
 17       0.009245661073
 18       0.000000009832
 19       0.000000007994
 20       0.000000000552
 21      -0.000000002352
 22       0.000000035808
 23      -0.000000094859
 24       0.000000076342
 25       0.000000010190
 26      -0.000000004023
 27       0.233769922749
 28      -0.000000027037
 29      -0.000000013911
 30       0.199065738070
 31       0.000000024957
 32       0.000000003188
 33       0.139863910376
 34      -0.000000006811
 35       0.011910502464
 36       0.004771616232
 37      -0.000000024278
 38      -0.000000015592
 39       0.000000000128
 40       0.000000000149
 41       0.000000000672
 42      -0.000000003034
 43       0.000000007577
 44      -0.000000000499
 45      -0.000000004286
 46      -0.435438714107
 47      -0.000000000254
 48      -0.000000002082
 49      -0.362594541919
 50       0.000000001823
 51      -0.000000003014
 52      -0.280331459485
 53       0.000000000267
 54      -0.003985500106
 55      -0.016875067566
 56      -0.000000001068
 57      -0.000000000380
 58       0.000000005014
 59      -0.000000008494
 60      -0.000000002077
 61       0.000000000461
 62      -0.000000000375
 63      -0.027022665192
 Sym=     1a
 Ene= -2.91048386525906E-01
 Spin= Alpha
 Occup= 1.936670
  1       0.033871913673
  2       0.077637309443
  3      -0.127003365419
  4      -0.181492628382
  5      -0.394389681585
  6      -0.090103497842
  7      -0.203561986643
  8      -0.000000001112
  9      -0.060771306158
 10      -0.161066623050
 11      -0.000000001165
 12      -0.054842809716
 13      -0.067382442428
 14      -0.000000000870
 15      -0.016318318586
 16      -0.000000000270
 17       0.000000000216
 18       0.011265042215
 19      -0.025376568633
 20      -0.004448624541
 21      -0.010965418690
 22       0.019889287478
 23       0.025783428409
 24       0.057659307463
 25      -0.028600678832
 26       0.355948644153
 27       0.000000003225
 28      -0.027857620314
 29       0.299006435058
 30       0.000000002577
 31      -0.010368453202
 32       0.236897868272
 33       0.000000002002
 34      -0.002865476117
 35       0.000000000767
 36       0.000000000247
 37      -0.000618875259
 38       0.009177561786
 39      -0.007924411442
 40      -0.019092107763
 41       0.028077099884
 42       0.064092434708
 43       0.113131674715
 44      -0.106203100794
 45       0.253596147198
 46      -0.000000003793
 47      -0.099632121333
 48       0.220146489649
 49      -0.000000005049
 50      -0.062767512133
 51       0.193944450930
 52      -0.000000003730
 53      -0.004469735499
 54       0.000000000545
 55      -0.000000000647
 56      -0.006710264064
 57      -0.003293247059
 58       0.001886170142
 59      -0.010597928822
 60      -0.049234026379
 61      -0.007464600410
 62       0.010150448047
 63      -0.000000000318
 Sym=     1a
 Ene= -9.83020973055024E-02
 Spin= Alpha
 Occup= 0.068284
  1       0.000000000131
  2       0.000000000570
  3      -0.000000004857
  4       0.000000014385
  5      -0.000000030867
  6      -0.000000000436
  7       0.000000000304
  8       0.403776728814
  9      -0.000000008694
 10      -0.000000002431
 11       0.371614879563
 12       0.000000013268
 13       0.000000008312
 14       0.407249801177
 15      -0.000000001813
 16       0.011014959534
 17      -0.001256596523
 18       0.000000002386
 19       0.000000001421
 20      -0.000000000205
 21      -0.000000001419
 22       0.000000009950
 23      -0.000000020364
 24       0.000000027361
 25       0.000000002151
 26      -0.000000000370
 27      -0.329388999980
 28      -0.000000005912
 29      -0.000000003042
 30      -0.278446526391
 31       0.000000008559
 32       0.000000002781
 33      -0.354193383320
 34      -0.000000001165
 35       0.007890637417
 36       0.004103618848
 37      -0.000000004474
 38      -0.000000003785
 39      -0.000000000018
 40      -0.000000000669
 41       0.000000001455
 42       0.000000000589
 43       0.000000002536
 44       0.000000001196
 45       0.000000002353
 46      -0.176699772373
 47       0.000000003100
 48       0.000000003112
 49      -0.139897721731
 50      -0.000000005016
 51       0.000000000857
 52      -0.186344594414
 53      -0.000000000152
 54      -0.009636422452
 55       0.006664556176
 56       0.000000000451
 57       0.000000000331
 58      -0.000000007037
 59       0.000000007064
 60      -0.000000002566
 61      -0.000000000007
 62       0.000000000219
 63      -0.010760954291
 Sym=     1a
 Ene= 1.91200164814296E-02
 Spin= Alpha
 Occup= 0.001148
  1       0.001523835328
  2       0.003866650521
  3      -0.011843233099
  4       0.006242053621
  5       0.087689833632
  6       0.032412384461
  7      -0.118912852754
  8       0.000000000729
  9       0.044831033910
 10      -0.135596752283
 11      -0.000000000363
 12      -0.088077273405
 13      -0.116339493666
 14       0.000000005660
 15       0.002763407562
 16      -0.000000000035
 17       0.000000000076
 18      -0.006285095134
 19       0.006213361832
 20       0.003184097167
 21       0.008098549303
 22      -0.019136653997
 23       0.006471343862
 24      -0.190466855973
 25      -0.030903584487
 26       0.087870780709
 27      -0.000000000623
 28      -0.023448204330
 29       0.078472722365
 30       0.000000000566
 31      -0.104539198256
 32       0.076499703467
 33      -0.000000005467
 34       0.000524121079
 35      -0.000000000630
 36      -0.000000000152
 37       0.001322149673
 38      -0.004446291675
 39       0.030955210871
 40       0.077043474236
 41      -0.160427708256
 42      -0.045066804573
 43      -0.946793059470
 44      -0.152562506886
 45      -0.110164601224
 46      -0.000000001078
 47      -0.091343048012
 48      -0.095250699702
 49      -0.000000001953
 50      -0.351271230779
 51      -0.201432122867
 52       0.000000000700
 53      -0.001752355068
 54       0.000000000081
 55      -0.000000000021
 56       0.008861927007
 57      -0.000411436064
 58       0.063292469550
 59       0.134586755947
 60       1.560718370059
 61       0.042428483071
 62       0.016562102213
 63      -0.000000000036
 Sym=     1a
 Ene= 8.75589098740981E-02
 Spin= Alpha
 Occup= 0.000104
  1      -0.042557698675
  2      -0.097491063684
  3       0.143506577468
  4       0.482492292753
  5       0.869054325997
  6       0.216694396393
  7      -0.327537552587
  8       0.000000000987
  9       0.211708938559
 10      -0.321926271560
 11       0.000000001252
 12       0.283707928072
 13      -0.844868155478
 14      -0.000000000103
 15       0.015169051380
 16      -0.000000000207
 17       0.000000000067
 18       0.000379217715
 19       0.014634341261
 20       0.001042785190
 21       0.002952087708
 22      -0.009168292500
 23       0.023051389224
 24      -0.271465452682
 25      -0.088247438299
 26       0.122612296780
 27      -0.000000000263
 28      -0.089518426673
 29       0.090962341682
 30      -0.000000000421
 31      -0.207102029260
 32       0.267181266369
 33       0.000000000840
 34       0.003770948583
 35      -0.000000000361
 36       0.000000000724
 37       0.014017623109
 38      -0.011880193084
 39       0.024437213464
 40       0.059153043530
 41      -0.098427918582
 42      -0.141556570251
 43      -0.563601498374
 44       0.252304386473
 45      -0.225850136441
 46      -0.000000001274
 47       0.195775968298
 48      -0.194970373782
 49      -0.000000001782
 50       0.687915056866
 51      -0.474997779717
 52      -0.000000001575
 53      -0.006137138941
 54       0.000000000289
 55      -0.000000000066
 56      -0.000305635192
 57      -0.023321615389
 58      -0.024124430958
 59      -0.104606843508
 60      -0.520899534463
 61       0.000043034908
 62      -0.026694570482
 63       0.000000000068
 Sym=     1a
 Ene= 2.00045774863212E-01
 Spin= Alpha
 Occup= 0.000002
  1       0.000031850426
  2      -0.005168142796
  3       0.113933510744
  4      -0.577740473587
  5       4.477957130886
  6      -0.113574523102
  7      -0.063262641365
  8       0.000000004831
  9      -0.045208562752
 10      -0.061197454827
 11       0.000000011527
 12      -2.173569470644
 13      -1.068880361455
 14      -0.000000026146
 15       0.035999268698
 16      -0.000000000332
 17      -0.000000000151
 18      -0.040968194131
 19      -0.024571541755
 20       0.042026017422
 21       0.105783238737
 22      -0.248948774573
 23       0.084511382212
 24      -3.616065796816
 25      -0.049617581300
 26      -0.035687139633
 27      -0.000000000727
 28       0.099111128963
 29       0.005779350033
 30      -0.000000001382
 31      -1.594174122553
 32      -0.389139437423
 33       0.000000007689
 34      -0.002315513761
 35       0.000000000008
 36       0.000000000109
 37       0.009377485105
 38       0.006649200606
 39       0.008014920637
 40       0.019096931494
 41      -0.028564727213
 42      -0.056708198824
 43      -0.504177429289
 44       0.061587635182
 45       0.078282895165
 46      -0.000000003633
 47       0.055430404594
 48       0.085664085586
 49      -0.000000004800
 50       0.409935826992
 51      -0.081316541676
 52       0.000000008446
 53       0.005398296481
 54       0.000000000181
 55      -0.000000000123
 56       0.010157456474
 57      -0.001208437363
 58       0.015749131418
 59      -0.018863396203
 60      -0.008181628387
 61      -0.004743165722
 62      -0.012617579026
 63       0.000000000269
 Sym=     1a
 Ene= 2.87031348633413E-01
 Spin= Alpha
 Occup= 0.000000
  1       0.044479072912
  2       0.090524007582
  3       0.056448167566
  4      -1.607119129602
  5       1.298421787899
  6       0.078520147354
  7      -0.191919322156
  8       0.000000001853
  9       0.038174387895
 10      -0.363207891052
 11       0.000000005006